    1C
    1USimOps Thermal Analysis: rod_transient.msh                        
    1UUSER                                                              
    1UDATE              18.december.2025                                
    1UTIME              15:16:11                                        
    1UHOST                                                              
    1UPGM               CalculiX                                        
    1UVERSION           Version 2.17                             
    1UCOMPILETIME       Thu Jul 23 21:43:50 CEST 2020                    
    1UDIR                                                               
    1UDBN                                                               
    1UMAT    1MAT1                                                      
    2C                         11008                                     1
 -1         1 0.00000E+00 0.00000E+00 1.00000E-01
 -1         2 0.00000E+00 0.00000E+00 0.00000E+00
 -1         3 0.00000E+00 5.00000E-03 1.00000E-01
 -1         4 0.00000E+00 5.00000E-03 0.00000E+00
 -1         5 5.00000E-03 0.00000E+00 1.00000E-01
 -1         6 5.00000E-03 0.00000E+00 0.00000E+00
 -1         7 5.00000E-03 5.00000E-03 1.00000E-01
 -1         8 5.00000E-03 5.00000E-03 0.00000E+00
 -1         9 0.00000E+00 0.00000E+00 2.00000E-03
 -1        10 0.00000E+00 0.00000E+00 4.00000E-03
 -1        11 0.00000E+00 0.00000E+00 6.00000E-03
 -1        12 0.00000E+00 0.00000E+00 8.00000E-03
 -1        13 0.00000E+00 0.00000E+00 1.00000E-02
 -1        14 0.00000E+00 0.00000E+00 1.20000E-02
 -1        15 0.00000E+00 0.00000E+00 1.40000E-02
 -1        16 0.00000E+00 0.00000E+00 1.60000E-02
 -1        17 0.00000E+00 0.00000E+00 1.80000E-02
 -1        18 0.00000E+00 0.00000E+00 2.00000E-02
 -1        19 0.00000E+00 0.00000E+00 2.20000E-02
 -1        20 0.00000E+00 0.00000E+00 2.40000E-02
 -1        21 0.00000E+00 0.00000E+00 2.60000E-02
 -1        22 0.00000E+00 0.00000E+00 2.80000E-02
 -1        23 0.00000E+00 0.00000E+00 3.00000E-02
 -1        24 0.00000E+00 0.00000E+00 3.20000E-02
 -1        25 0.00000E+00 0.00000E+00 3.40000E-02
 -1        26 0.00000E+00 0.00000E+00 3.60000E-02
 -1        27 0.00000E+00 0.00000E+00 3.80000E-02
 -1        28 0.00000E+00 0.00000E+00 4.00000E-02
 -1        29 0.00000E+00 0.00000E+00 4.20000E-02
 -1        30 0.00000E+00 0.00000E+00 4.40000E-02
 -1        31 0.00000E+00 0.00000E+00 4.60000E-02
 -1        32 0.00000E+00 0.00000E+00 4.80000E-02
 -1        33 0.00000E+00 0.00000E+00 5.00000E-02
 -1        34 0.00000E+00 0.00000E+00 5.20000E-02
 -1        35 0.00000E+00 0.00000E+00 5.40000E-02
 -1        36 0.00000E+00 0.00000E+00 5.60000E-02
 -1        37 0.00000E+00 0.00000E+00 5.80000E-02
 -1        38 0.00000E+00 0.00000E+00 6.00000E-02
 -1        39 0.00000E+00 0.00000E+00 6.20000E-02
 -1        40 0.00000E+00 0.00000E+00 6.40000E-02
 -1        41 0.00000E+00 0.00000E+00 6.60000E-02
 -1        42 0.00000E+00 0.00000E+00 6.80000E-02
 -1        43 0.00000E+00 0.00000E+00 7.00000E-02
 -1        44 0.00000E+00 0.00000E+00 7.20000E-02
 -1        45 0.00000E+00 0.00000E+00 7.40000E-02
 -1        46 0.00000E+00 0.00000E+00 7.60000E-02
 -1        47 0.00000E+00 0.00000E+00 7.80000E-02
 -1        48 0.00000E+00 0.00000E+00 8.00000E-02
 -1        49 0.00000E+00 0.00000E+00 8.20000E-02
 -1        50 0.00000E+00 0.00000E+00 8.40000E-02
 -1        51 0.00000E+00 0.00000E+00 8.60000E-02
 -1        52 0.00000E+00 0.00000E+00 8.80000E-02
 -1        53 0.00000E+00 0.00000E+00 9.00000E-02
 -1        54 0.00000E+00 0.00000E+00 9.20000E-02
 -1        55 0.00000E+00 0.00000E+00 9.40000E-02
 -1        56 0.00000E+00 0.00000E+00 9.60000E-02
 -1        57 0.00000E+00 0.00000E+00 9.80000E-02
 -1        58 0.00000E+00 0.00000E+00 1.00000E-03
 -1        59 0.00000E+00 0.00000E+00 3.00000E-03
 -1        60 0.00000E+00 0.00000E+00 5.00000E-03
 -1        61 0.00000E+00 0.00000E+00 7.00000E-03
 -1        62 0.00000E+00 0.00000E+00 9.00000E-03
 -1        63 0.00000E+00 0.00000E+00 1.10000E-02
 -1        64 0.00000E+00 0.00000E+00 1.30000E-02
 -1        65 0.00000E+00 0.00000E+00 1.50000E-02
 -1        66 0.00000E+00 0.00000E+00 1.70000E-02
 -1        67 0.00000E+00 0.00000E+00 1.90000E-02
 -1        68 0.00000E+00 0.00000E+00 2.10000E-02
 -1        69 0.00000E+00 0.00000E+00 2.30000E-02
 -1        70 0.00000E+00 0.00000E+00 2.50000E-02
 -1        71 0.00000E+00 0.00000E+00 2.70000E-02
 -1        72 0.00000E+00 0.00000E+00 2.90000E-02
 -1        73 0.00000E+00 0.00000E+00 3.10000E-02
 -1        74 0.00000E+00 0.00000E+00 3.30000E-02
 -1        75 0.00000E+00 0.00000E+00 3.50000E-02
 -1        76 0.00000E+00 0.00000E+00 3.70000E-02
 -1        77 0.00000E+00 0.00000E+00 3.90000E-02
 -1        78 0.00000E+00 0.00000E+00 4.10000E-02
 -1        79 0.00000E+00 0.00000E+00 4.30000E-02
 -1        80 0.00000E+00 0.00000E+00 4.50000E-02
 -1        81 0.00000E+00 0.00000E+00 4.70000E-02
 -1        82 0.00000E+00 0.00000E+00 4.90000E-02
 -1        83 0.00000E+00 0.00000E+00 5.10000E-02
 -1        84 0.00000E+00 0.00000E+00 5.30000E-02
 -1        85 0.00000E+00 0.00000E+00 5.50000E-02
 -1        86 0.00000E+00 0.00000E+00 5.70000E-02
 -1        87 0.00000E+00 0.00000E+00 5.90000E-02
 -1        88 0.00000E+00 0.00000E+00 6.10000E-02
 -1        89 0.00000E+00 0.00000E+00 6.30000E-02
 -1        90 0.00000E+00 0.00000E+00 6.50000E-02
 -1        91 0.00000E+00 0.00000E+00 6.70000E-02
 -1        92 0.00000E+00 0.00000E+00 6.90000E-02
 -1        93 0.00000E+00 0.00000E+00 7.10000E-02
 -1        94 0.00000E+00 0.00000E+00 7.30000E-02
 -1        95 0.00000E+00 0.00000E+00 7.50000E-02
 -1        96 0.00000E+00 0.00000E+00 7.70000E-02
 -1        97 0.00000E+00 0.00000E+00 7.90000E-02
 -1        98 0.00000E+00 0.00000E+00 8.10000E-02
 -1        99 0.00000E+00 0.00000E+00 8.30000E-02
 -1       100 0.00000E+00 0.00000E+00 8.50000E-02
 -1       101 0.00000E+00 0.00000E+00 8.70000E-02
 -1       102 0.00000E+00 0.00000E+00 8.90000E-02
 -1       103 0.00000E+00 0.00000E+00 9.10000E-02
 -1       104 0.00000E+00 0.00000E+00 9.30000E-02
 -1       105 0.00000E+00 0.00000E+00 9.50000E-02
 -1       106 0.00000E+00 0.00000E+00 9.70000E-02
 -1       107 0.00000E+00 0.00000E+00 9.90000E-02
 -1       108 0.00000E+00 1.66700E-03 1.00000E-01
 -1       109 0.00000E+00 3.33300E-03 1.00000E-01
 -1       110 0.00000E+00 8.33000E-04 1.00000E-01
 -1       111 0.00000E+00 2.50000E-03 1.00000E-01
 -1       112 0.00000E+00 4.16700E-03 1.00000E-01
 -1       113 0.00000E+00 5.00000E-03 2.00000E-03
 -1       114 0.00000E+00 5.00000E-03 4.00000E-03
 -1       115 0.00000E+00 5.00000E-03 6.00000E-03
 -1       116 0.00000E+00 5.00000E-03 8.00000E-03
 -1       117 0.00000E+00 5.00000E-03 1.00000E-02
 -1       118 0.00000E+00 5.00000E-03 1.20000E-02
 -1       119 0.00000E+00 5.00000E-03 1.40000E-02
 -1       120 0.00000E+00 5.00000E-03 1.60000E-02
 -1       121 0.00000E+00 5.00000E-03 1.80000E-02
 -1       122 0.00000E+00 5.00000E-03 2.00000E-02
 -1       123 0.00000E+00 5.00000E-03 2.20000E-02
 -1       124 0.00000E+00 5.00000E-03 2.40000E-02
 -1       125 0.00000E+00 5.00000E-03 2.60000E-02
 -1       126 0.00000E+00 5.00000E-03 2.80000E-02
 -1       127 0.00000E+00 5.00000E-03 3.00000E-02
 -1       128 0.00000E+00 5.00000E-03 3.20000E-02
 -1       129 0.00000E+00 5.00000E-03 3.40000E-02
 -1       130 0.00000E+00 5.00000E-03 3.60000E-02
 -1       131 0.00000E+00 5.00000E-03 3.80000E-02
 -1       132 0.00000E+00 5.00000E-03 4.00000E-02
 -1       133 0.00000E+00 5.00000E-03 4.20000E-02
 -1       134 0.00000E+00 5.00000E-03 4.40000E-02
 -1       135 0.00000E+00 5.00000E-03 4.60000E-02
 -1       136 0.00000E+00 5.00000E-03 4.80000E-02
 -1       137 0.00000E+00 5.00000E-03 5.00000E-02
 -1       138 0.00000E+00 5.00000E-03 5.20000E-02
 -1       139 0.00000E+00 5.00000E-03 5.40000E-02
 -1       140 0.00000E+00 5.00000E-03 5.60000E-02
 -1       141 0.00000E+00 5.00000E-03 5.80000E-02
 -1       142 0.00000E+00 5.00000E-03 6.00000E-02
 -1       143 0.00000E+00 5.00000E-03 6.20000E-02
 -1       144 0.00000E+00 5.00000E-03 6.40000E-02
 -1       145 0.00000E+00 5.00000E-03 6.60000E-02
 -1       146 0.00000E+00 5.00000E-03 6.80000E-02
 -1       147 0.00000E+00 5.00000E-03 7.00000E-02
 -1       148 0.00000E+00 5.00000E-03 7.20000E-02
 -1       149 0.00000E+00 5.00000E-03 7.40000E-02
 -1       150 0.00000E+00 5.00000E-03 7.60000E-02
 -1       151 0.00000E+00 5.00000E-03 7.80000E-02
 -1       152 0.00000E+00 5.00000E-03 8.00000E-02
 -1       153 0.00000E+00 5.00000E-03 8.20000E-02
 -1       154 0.00000E+00 5.00000E-03 8.40000E-02
 -1       155 0.00000E+00 5.00000E-03 8.60000E-02
 -1       156 0.00000E+00 5.00000E-03 8.80000E-02
 -1       157 0.00000E+00 5.00000E-03 9.00000E-02
 -1       158 0.00000E+00 5.00000E-03 9.20000E-02
 -1       159 0.00000E+00 5.00000E-03 9.40000E-02
 -1       160 0.00000E+00 5.00000E-03 9.60000E-02
 -1       161 0.00000E+00 5.00000E-03 9.80000E-02
 -1       162 0.00000E+00 5.00000E-03 1.00000E-03
 -1       163 0.00000E+00 5.00000E-03 3.00000E-03
 -1       164 0.00000E+00 5.00000E-03 5.00000E-03
 -1       165 0.00000E+00 5.00000E-03 7.00000E-03
 -1       166 0.00000E+00 5.00000E-03 9.00000E-03
 -1       167 0.00000E+00 5.00000E-03 1.10000E-02
 -1       168 0.00000E+00 5.00000E-03 1.30000E-02
 -1       169 0.00000E+00 5.00000E-03 1.50000E-02
 -1       170 0.00000E+00 5.00000E-03 1.70000E-02
 -1       171 0.00000E+00 5.00000E-03 1.90000E-02
 -1       172 0.00000E+00 5.00000E-03 2.10000E-02
 -1       173 0.00000E+00 5.00000E-03 2.30000E-02
 -1       174 0.00000E+00 5.00000E-03 2.50000E-02
 -1       175 0.00000E+00 5.00000E-03 2.70000E-02
 -1       176 0.00000E+00 5.00000E-03 2.90000E-02
 -1       177 0.00000E+00 5.00000E-03 3.10000E-02
 -1       178 0.00000E+00 5.00000E-03 3.30000E-02
 -1       179 0.00000E+00 5.00000E-03 3.50000E-02
 -1       180 0.00000E+00 5.00000E-03 3.70000E-02
 -1       181 0.00000E+00 5.00000E-03 3.90000E-02
 -1       182 0.00000E+00 5.00000E-03 4.10000E-02
 -1       183 0.00000E+00 5.00000E-03 4.30000E-02
 -1       184 0.00000E+00 5.00000E-03 4.50000E-02
 -1       185 0.00000E+00 5.00000E-03 4.70000E-02
 -1       186 0.00000E+00 5.00000E-03 4.90000E-02
 -1       187 0.00000E+00 5.00000E-03 5.10000E-02
 -1       188 0.00000E+00 5.00000E-03 5.30000E-02
 -1       189 0.00000E+00 5.00000E-03 5.50000E-02
 -1       190 0.00000E+00 5.00000E-03 5.70000E-02
 -1       191 0.00000E+00 5.00000E-03 5.90000E-02
 -1       192 0.00000E+00 5.00000E-03 6.10000E-02
 -1       193 0.00000E+00 5.00000E-03 6.30000E-02
 -1       194 0.00000E+00 5.00000E-03 6.50000E-02
 -1       195 0.00000E+00 5.00000E-03 6.70000E-02
 -1       196 0.00000E+00 5.00000E-03 6.90000E-02
 -1       197 0.00000E+00 5.00000E-03 7.10000E-02
 -1       198 0.00000E+00 5.00000E-03 7.30000E-02
 -1       199 0.00000E+00 5.00000E-03 7.50000E-02
 -1       200 0.00000E+00 5.00000E-03 7.70000E-02
 -1       201 0.00000E+00 5.00000E-03 7.90000E-02
 -1       202 0.00000E+00 5.00000E-03 8.10000E-02
 -1       203 0.00000E+00 5.00000E-03 8.30000E-02
 -1       204 0.00000E+00 5.00000E-03 8.50000E-02
 -1       205 0.00000E+00 5.00000E-03 8.70000E-02
 -1       206 0.00000E+00 5.00000E-03 8.90000E-02
 -1       207 0.00000E+00 5.00000E-03 9.10000E-02
 -1       208 0.00000E+00 5.00000E-03 9.30000E-02
 -1       209 0.00000E+00 5.00000E-03 9.50000E-02
 -1       210 0.00000E+00 5.00000E-03 9.70000E-02
 -1       211 0.00000E+00 5.00000E-03 9.90000E-02
 -1       212 0.00000E+00 1.66700E-03 0.00000E+00
 -1       213 0.00000E+00 3.33300E-03 0.00000E+00
 -1       214 0.00000E+00 8.33000E-04 0.00000E+00
 -1       215 0.00000E+00 2.50000E-03 0.00000E+00
 -1       216 0.00000E+00 4.16700E-03 0.00000E+00
 -1       217 5.00000E-03 0.00000E+00 2.00000E-03
 -1       218 5.00000E-03 0.00000E+00 4.00000E-03
 -1       219 5.00000E-03 0.00000E+00 6.00000E-03
 -1       220 5.00000E-03 0.00000E+00 8.00000E-03
 -1       221 5.00000E-03 0.00000E+00 1.00000E-02
 -1       222 5.00000E-03 0.00000E+00 1.20000E-02
 -1       223 5.00000E-03 0.00000E+00 1.40000E-02
 -1       224 5.00000E-03 0.00000E+00 1.60000E-02
 -1       225 5.00000E-03 0.00000E+00 1.80000E-02
 -1       226 5.00000E-03 0.00000E+00 2.00000E-02
 -1       227 5.00000E-03 0.00000E+00 2.20000E-02
 -1       228 5.00000E-03 0.00000E+00 2.40000E-02
 -1       229 5.00000E-03 0.00000E+00 2.60000E-02
 -1       230 5.00000E-03 0.00000E+00 2.80000E-02
 -1       231 5.00000E-03 0.00000E+00 3.00000E-02
 -1       232 5.00000E-03 0.00000E+00 3.20000E-02
 -1       233 5.00000E-03 0.00000E+00 3.40000E-02
 -1       234 5.00000E-03 0.00000E+00 3.60000E-02
 -1       235 5.00000E-03 0.00000E+00 3.80000E-02
 -1       236 5.00000E-03 0.00000E+00 4.00000E-02
 -1       237 5.00000E-03 0.00000E+00 4.20000E-02
 -1       238 5.00000E-03 0.00000E+00 4.40000E-02
 -1       239 5.00000E-03 0.00000E+00 4.60000E-02
 -1       240 5.00000E-03 0.00000E+00 4.80000E-02
 -1       241 5.00000E-03 0.00000E+00 5.00000E-02
 -1       242 5.00000E-03 0.00000E+00 5.20000E-02
 -1       243 5.00000E-03 0.00000E+00 5.40000E-02
 -1       244 5.00000E-03 0.00000E+00 5.60000E-02
 -1       245 5.00000E-03 0.00000E+00 5.80000E-02
 -1       246 5.00000E-03 0.00000E+00 6.00000E-02
 -1       247 5.00000E-03 0.00000E+00 6.20000E-02
 -1       248 5.00000E-03 0.00000E+00 6.40000E-02
 -1       249 5.00000E-03 0.00000E+00 6.60000E-02
 -1       250 5.00000E-03 0.00000E+00 6.80000E-02
 -1       251 5.00000E-03 0.00000E+00 7.00000E-02
 -1       252 5.00000E-03 0.00000E+00 7.20000E-02
 -1       253 5.00000E-03 0.00000E+00 7.40000E-02
 -1       254 5.00000E-03 0.00000E+00 7.60000E-02
 -1       255 5.00000E-03 0.00000E+00 7.80000E-02
 -1       256 5.00000E-03 0.00000E+00 8.00000E-02
 -1       257 5.00000E-03 0.00000E+00 8.20000E-02
 -1       258 5.00000E-03 0.00000E+00 8.40000E-02
 -1       259 5.00000E-03 0.00000E+00 8.60000E-02
 -1       260 5.00000E-03 0.00000E+00 8.80000E-02
 -1       261 5.00000E-03 0.00000E+00 9.00000E-02
 -1       262 5.00000E-03 0.00000E+00 9.20000E-02
 -1       263 5.00000E-03 0.00000E+00 9.40000E-02
 -1       264 5.00000E-03 0.00000E+00 9.60000E-02
 -1       265 5.00000E-03 0.00000E+00 9.80000E-02
 -1       266 5.00000E-03 0.00000E+00 1.00000E-03
 -1       267 5.00000E-03 0.00000E+00 3.00000E-03
 -1       268 5.00000E-03 0.00000E+00 5.00000E-03
 -1       269 5.00000E-03 0.00000E+00 7.00000E-03
 -1       270 5.00000E-03 0.00000E+00 9.00000E-03
 -1       271 5.00000E-03 0.00000E+00 1.10000E-02
 -1       272 5.00000E-03 0.00000E+00 1.30000E-02
 -1       273 5.00000E-03 0.00000E+00 1.50000E-02
 -1       274 5.00000E-03 0.00000E+00 1.70000E-02
 -1       275 5.00000E-03 0.00000E+00 1.90000E-02
 -1       276 5.00000E-03 0.00000E+00 2.10000E-02
 -1       277 5.00000E-03 0.00000E+00 2.30000E-02
 -1       278 5.00000E-03 0.00000E+00 2.50000E-02
 -1       279 5.00000E-03 0.00000E+00 2.70000E-02
 -1       280 5.00000E-03 0.00000E+00 2.90000E-02
 -1       281 5.00000E-03 0.00000E+00 3.10000E-02
 -1       282 5.00000E-03 0.00000E+00 3.30000E-02
 -1       283 5.00000E-03 0.00000E+00 3.50000E-02
 -1       284 5.00000E-03 0.00000E+00 3.70000E-02
 -1       285 5.00000E-03 0.00000E+00 3.90000E-02
 -1       286 5.00000E-03 0.00000E+00 4.10000E-02
 -1       287 5.00000E-03 0.00000E+00 4.30000E-02
 -1       288 5.00000E-03 0.00000E+00 4.50000E-02
 -1       289 5.00000E-03 0.00000E+00 4.70000E-02
 -1       290 5.00000E-03 0.00000E+00 4.90000E-02
 -1       291 5.00000E-03 0.00000E+00 5.10000E-02
 -1       292 5.00000E-03 0.00000E+00 5.30000E-02
 -1       293 5.00000E-03 0.00000E+00 5.50000E-02
 -1       294 5.00000E-03 0.00000E+00 5.70000E-02
 -1       295 5.00000E-03 0.00000E+00 5.90000E-02
 -1       296 5.00000E-03 0.00000E+00 6.10000E-02
 -1       297 5.00000E-03 0.00000E+00 6.30000E-02
 -1       298 5.00000E-03 0.00000E+00 6.50000E-02
 -1       299 5.00000E-03 0.00000E+00 6.70000E-02
 -1       300 5.00000E-03 0.00000E+00 6.90000E-02
 -1       301 5.00000E-03 0.00000E+00 7.10000E-02
 -1       302 5.00000E-03 0.00000E+00 7.30000E-02
 -1       303 5.00000E-03 0.00000E+00 7.50000E-02
 -1       304 5.00000E-03 0.00000E+00 7.70000E-02
 -1       305 5.00000E-03 0.00000E+00 7.90000E-02
 -1       306 5.00000E-03 0.00000E+00 8.10000E-02
 -1       307 5.00000E-03 0.00000E+00 8.30000E-02
 -1       308 5.00000E-03 0.00000E+00 8.50000E-02
 -1       309 5.00000E-03 0.00000E+00 8.70000E-02
 -1       310 5.00000E-03 0.00000E+00 8.90000E-02
 -1       311 5.00000E-03 0.00000E+00 9.10000E-02
 -1       312 5.00000E-03 0.00000E+00 9.30000E-02
 -1       313 5.00000E-03 0.00000E+00 9.50000E-02
 -1       314 5.00000E-03 0.00000E+00 9.70000E-02
 -1       315 5.00000E-03 0.00000E+00 9.90000E-02
 -1       316 5.00000E-03 1.66700E-03 1.00000E-01
 -1       317 5.00000E-03 3.33300E-03 1.00000E-01
 -1       318 5.00000E-03 8.33000E-04 1.00000E-01
 -1       319 5.00000E-03 2.50000E-03 1.00000E-01
 -1       320 5.00000E-03 4.16700E-03 1.00000E-01
 -1       321 5.00000E-03 5.00000E-03 2.00000E-03
 -1       322 5.00000E-03 5.00000E-03 4.00000E-03
 -1       323 5.00000E-03 5.00000E-03 6.00000E-03
 -1       324 5.00000E-03 5.00000E-03 8.00000E-03
 -1       325 5.00000E-03 5.00000E-03 1.00000E-02
 -1       326 5.00000E-03 5.00000E-03 1.20000E-02
 -1       327 5.00000E-03 5.00000E-03 1.40000E-02
 -1       328 5.00000E-03 5.00000E-03 1.60000E-02
 -1       329 5.00000E-03 5.00000E-03 1.80000E-02
 -1       330 5.00000E-03 5.00000E-03 2.00000E-02
 -1       331 5.00000E-03 5.00000E-03 2.20000E-02
 -1       332 5.00000E-03 5.00000E-03 2.40000E-02
 -1       333 5.00000E-03 5.00000E-03 2.60000E-02
 -1       334 5.00000E-03 5.00000E-03 2.80000E-02
 -1       335 5.00000E-03 5.00000E-03 3.00000E-02
 -1       336 5.00000E-03 5.00000E-03 3.20000E-02
 -1       337 5.00000E-03 5.00000E-03 3.40000E-02
 -1       338 5.00000E-03 5.00000E-03 3.60000E-02
 -1       339 5.00000E-03 5.00000E-03 3.80000E-02
 -1       340 5.00000E-03 5.00000E-03 4.00000E-02
 -1       341 5.00000E-03 5.00000E-03 4.20000E-02
 -1       342 5.00000E-03 5.00000E-03 4.40000E-02
 -1       343 5.00000E-03 5.00000E-03 4.60000E-02
 -1       344 5.00000E-03 5.00000E-03 4.80000E-02
 -1       345 5.00000E-03 5.00000E-03 5.00000E-02
 -1       346 5.00000E-03 5.00000E-03 5.20000E-02
 -1       347 5.00000E-03 5.00000E-03 5.40000E-02
 -1       348 5.00000E-03 5.00000E-03 5.60000E-02
 -1       349 5.00000E-03 5.00000E-03 5.80000E-02
 -1       350 5.00000E-03 5.00000E-03 6.00000E-02
 -1       351 5.00000E-03 5.00000E-03 6.20000E-02
 -1       352 5.00000E-03 5.00000E-03 6.40000E-02
 -1       353 5.00000E-03 5.00000E-03 6.60000E-02
 -1       354 5.00000E-03 5.00000E-03 6.80000E-02
 -1       355 5.00000E-03 5.00000E-03 7.00000E-02
 -1       356 5.00000E-03 5.00000E-03 7.20000E-02
 -1       357 5.00000E-03 5.00000E-03 7.40000E-02
 -1       358 5.00000E-03 5.00000E-03 7.60000E-02
 -1       359 5.00000E-03 5.00000E-03 7.80000E-02
 -1       360 5.00000E-03 5.00000E-03 8.00000E-02
 -1       361 5.00000E-03 5.00000E-03 8.20000E-02
 -1       362 5.00000E-03 5.00000E-03 8.40000E-02
 -1       363 5.00000E-03 5.00000E-03 8.60000E-02
 -1       364 5.00000E-03 5.00000E-03 8.80000E-02
 -1       365 5.00000E-03 5.00000E-03 9.00000E-02
 -1       366 5.00000E-03 5.00000E-03 9.20000E-02
 -1       367 5.00000E-03 5.00000E-03 9.40000E-02
 -1       368 5.00000E-03 5.00000E-03 9.60000E-02
 -1       369 5.00000E-03 5.00000E-03 9.80000E-02
 -1       370 5.00000E-03 5.00000E-03 1.00000E-03
 -1       371 5.00000E-03 5.00000E-03 3.00000E-03
 -1       372 5.00000E-03 5.00000E-03 5.00000E-03
 -1       373 5.00000E-03 5.00000E-03 7.00000E-03
 -1       374 5.00000E-03 5.00000E-03 9.00000E-03
 -1       375 5.00000E-03 5.00000E-03 1.10000E-02
 -1       376 5.00000E-03 5.00000E-03 1.30000E-02
 -1       377 5.00000E-03 5.00000E-03 1.50000E-02
 -1       378 5.00000E-03 5.00000E-03 1.70000E-02
 -1       379 5.00000E-03 5.00000E-03 1.90000E-02
 -1       380 5.00000E-03 5.00000E-03 2.10000E-02
 -1       381 5.00000E-03 5.00000E-03 2.30000E-02
 -1       382 5.00000E-03 5.00000E-03 2.50000E-02
 -1       383 5.00000E-03 5.00000E-03 2.70000E-02
 -1       384 5.00000E-03 5.00000E-03 2.90000E-02
 -1       385 5.00000E-03 5.00000E-03 3.10000E-02
 -1       386 5.00000E-03 5.00000E-03 3.30000E-02
 -1       387 5.00000E-03 5.00000E-03 3.50000E-02
 -1       388 5.00000E-03 5.00000E-03 3.70000E-02
 -1       389 5.00000E-03 5.00000E-03 3.90000E-02
 -1       390 5.00000E-03 5.00000E-03 4.10000E-02
 -1       391 5.00000E-03 5.00000E-03 4.30000E-02
 -1       392 5.00000E-03 5.00000E-03 4.50000E-02
 -1       393 5.00000E-03 5.00000E-03 4.70000E-02
 -1       394 5.00000E-03 5.00000E-03 4.90000E-02
 -1       395 5.00000E-03 5.00000E-03 5.10000E-02
 -1       396 5.00000E-03 5.00000E-03 5.30000E-02
 -1       397 5.00000E-03 5.00000E-03 5.50000E-02
 -1       398 5.00000E-03 5.00000E-03 5.70000E-02
 -1       399 5.00000E-03 5.00000E-03 5.90000E-02
 -1       400 5.00000E-03 5.00000E-03 6.10000E-02
 -1       401 5.00000E-03 5.00000E-03 6.30000E-02
 -1       402 5.00000E-03 5.00000E-03 6.50000E-02
 -1       403 5.00000E-03 5.00000E-03 6.70000E-02
 -1       404 5.00000E-03 5.00000E-03 6.90000E-02
 -1       405 5.00000E-03 5.00000E-03 7.10000E-02
 -1       406 5.00000E-03 5.00000E-03 7.30000E-02
 -1       407 5.00000E-03 5.00000E-03 7.50000E-02
 -1       408 5.00000E-03 5.00000E-03 7.70000E-02
 -1       409 5.00000E-03 5.00000E-03 7.90000E-02
 -1       410 5.00000E-03 5.00000E-03 8.10000E-02
 -1       411 5.00000E-03 5.00000E-03 8.30000E-02
 -1       412 5.00000E-03 5.00000E-03 8.50000E-02
 -1       413 5.00000E-03 5.00000E-03 8.70000E-02
 -1       414 5.00000E-03 5.00000E-03 8.90000E-02
 -1       415 5.00000E-03 5.00000E-03 9.10000E-02
 -1       416 5.00000E-03 5.00000E-03 9.30000E-02
 -1       417 5.00000E-03 5.00000E-03 9.50000E-02
 -1       418 5.00000E-03 5.00000E-03 9.70000E-02
 -1       419 5.00000E-03 5.00000E-03 9.90000E-02
 -1       420 5.00000E-03 1.66700E-03 0.00000E+00
 -1       421 5.00000E-03 3.33300E-03 0.00000E+00
 -1       422 5.00000E-03 8.33000E-04 0.00000E+00
 -1       423 5.00000E-03 2.50000E-03 0.00000E+00
 -1       424 5.00000E-03 4.16700E-03 0.00000E+00
 -1       425 1.66700E-03 0.00000E+00 0.00000E+00
 -1       426 3.33300E-03 0.00000E+00 0.00000E+00
 -1       427 8.33000E-04 0.00000E+00 0.00000E+00
 -1       428 2.50000E-03 0.00000E+00 0.00000E+00
 -1       429 4.16700E-03 0.00000E+00 0.00000E+00
 -1       430 1.66700E-03 0.00000E+00 1.00000E-01
 -1       431 3.33300E-03 0.00000E+00 1.00000E-01
 -1       432 8.33000E-04 0.00000E+00 1.00000E-01
 -1       433 2.50000E-03 0.00000E+00 1.00000E-01
 -1       434 4.16700E-03 0.00000E+00 1.00000E-01
 -1       435 1.66700E-03 5.00000E-03 0.00000E+00
 -1       436 3.33300E-03 5.00000E-03 0.00000E+00
 -1       437 8.33000E-04 5.00000E-03 0.00000E+00
 -1       438 2.50000E-03 5.00000E-03 0.00000E+00
 -1       439 4.16700E-03 5.00000E-03 0.00000E+00
 -1       440 1.66700E-03 5.00000E-03 1.00000E-01
 -1       441 3.33300E-03 5.00000E-03 1.00000E-01
 -1       442 8.33000E-04 5.00000E-03 1.00000E-01
 -1       443 2.50000E-03 5.00000E-03 1.00000E-01
 -1       444 4.16700E-03 5.00000E-03 1.00000E-01
 -1       445 0.00000E+00 2.52200E-03 1.43700E-03
 -1       446 0.00000E+00 2.52200E-03 9.85630E-02
 -1       447 0.00000E+00 1.73200E-03 8.10000E-02
 -1       448 0.00000E+00 1.73200E-03 6.30000E-02
 -1       449 0.00000E+00 1.64000E-03 7.09200E-02
 -1       450 0.00000E+00 1.73200E-03 9.50000E-02
 -1       451 0.00000E+00 1.73200E-03 3.50000E-02
 -1       452 0.00000E+00 1.73200E-03 5.90000E-02
 -1       453 0.00000E+00 1.73200E-03 7.70000E-02
 -1       454 0.00000E+00 1.85500E-03 8.90710E-02
 -1       455 0.00000E+00 3.26800E-03 6.70000E-02
 -1       456 0.00000E+00 3.10800E-03 8.47870E-02
 -1       457 0.00000E+00 1.73200E-03 3.90000E-02
 -1       458 0.00000E+00 1.66700E-03 4.26670E-02
 -1       459 0.00000E+00 1.73200E-03 4.90000E-02
 -1       460 0.00000E+00 1.66700E-03 5.26670E-02
 -1       461 0.00000E+00 1.73200E-03 1.70000E-02
 -1       462 0.00000E+00 3.26800E-03 3.10000E-02
 -1       463 0.00000E+00 1.73200E-03 5.00000E-03
 -1       464 0.00000E+00 1.85500E-03 1.10710E-02
 -1       465 0.00000E+00 3.26800E-03 2.70000E-02
 -1       466 0.00000E+00 1.73200E-03 2.10000E-02
 -1       467 0.00000E+00 3.16300E-03 9.09390E-02
 -1       468 0.00000E+00 3.26800E-03 4.70000E-02
 -1       469 0.00000E+00 3.26800E-03 5.70000E-02
 -1       470 0.00000E+00 3.26800E-03 7.50000E-02
 -1       471 0.00000E+00 3.26800E-03 3.70000E-02
 -1       472 0.00000E+00 3.26800E-03 4.10000E-02
 -1       473 0.00000E+00 3.26800E-03 5.10000E-02
 -1       474 0.00000E+00 1.73200E-03 2.50000E-02
 -1       475 0.00000E+00 3.33300E-03 1.53330E-02
 -1       476 0.00000E+00 3.12500E-03 9.22400E-03
 -1       477 0.00000E+00 3.26800E-03 6.10000E-02
 -1       478 0.00000E+00 3.26800E-03 1.90000E-02
 -1       479 0.00000E+00 1.73200E-03 2.90000E-02
 -1       480 0.00000E+00 3.26800E-03 2.30000E-02
 -1       481 0.00000E+00 3.26800E-03 7.90000E-02
 -1       482 0.00000E+00 1.87700E-03 9.27780E-02
 -1       483 0.00000E+00 1.73200E-03 8.30000E-02
 -1       484 0.00000E+00 3.26800E-03 6.50000E-02
 -1       485 0.00000E+00 3.10200E-03 8.71930E-02
 -1       486 0.00000E+00 1.87900E-03 6.87750E-02
 -1       487 0.00000E+00 3.33300E-03 3.33330E-02
 -1       488 0.00000E+00 1.73200E-03 5.50000E-02
 -1       489 0.00000E+00 3.26800E-03 1.30000E-02
 -1       490 0.00000E+00 3.08700E-03 6.81800E-03
 -1       491 0.00000E+00 1.73200E-03 4.50000E-02
 -1       492 0.00000E+00 1.73200E-03 7.30000E-02
 -1       493 0.00000E+00 1.66100E-03 3.12300E-03
 -1       494 0.00000E+00 1.69100E-03 9.69020E-02
 -1       495 0.00000E+00 3.60300E-03 9.72830E-02
 -1       496 0.00000E+00 3.59200E-03 2.80400E-03
 -1       497 0.00000E+00 3.21300E-03 9.40000E-02
 -1       498 0.00000E+00 3.63200E-03 7.31040E-02
 -1       499 0.00000E+00 1.78700E-03 8.60000E-02
 -1       500 0.00000E+00 3.04700E-03 6.99440E-02
 -1       501 0.00000E+00 3.70400E-03 8.10000E-02
 -1       502 0.00000E+00 3.65400E-03 6.30000E-02
 -1       503 0.00000E+00 1.34600E-03 6.10000E-02
 -1       504 0.00000E+00 3.66700E-03 3.50670E-02
 -1       505 0.00000E+00 1.34600E-03 3.70000E-02
 -1       506 0.00000E+00 3.65400E-03 5.90000E-02
 -1       507 0.00000E+00 1.34600E-03 7.90000E-02
 -1       508 0.00000E+00 3.65400E-03 7.70000E-02
 -1       509 0.00000E+00 3.62400E-03 8.90410E-02
 -1       510 0.00000E+00 1.33300E-03 4.09330E-02
 -1       511 0.00000E+00 3.65400E-03 3.90000E-02
 -1       512 0.00000E+00 1.63600E-03 3.27220E-02
 -1       513 0.00000E+00 1.64900E-03 6.66290E-02
 -1       514 0.00000E+00 1.34600E-03 4.70000E-02
 -1       515 0.00000E+00 3.36400E-03 4.32780E-02
 -1       516 0.00000E+00 3.67300E-03 4.50560E-02
 -1       517 0.00000E+00 3.36400E-03 5.32780E-02
 -1       518 0.00000E+00 1.34600E-03 7.50000E-02
 -1       519 0.00000E+00 1.37900E-03 9.09580E-02
 -1       520 0.00000E+00 1.34600E-03 5.70000E-02
 -1       521 0.00000E+00 1.33300E-03 5.09330E-02
 -1       522 0.00000E+00 3.65400E-03 4.90000E-02
 -1       523 0.00000E+00 3.37900E-03 8.26310E-02
 -1       524 0.00000E+00 3.66700E-03 1.70670E-02
 -1       525 0.00000E+00 1.78700E-03 8.00000E-03
 -1       526 0.00000E+00 1.32700E-03 3.09440E-02
 -1       527 0.00000E+00 1.34600E-03 2.30000E-02
 -1       528 0.00000E+00 3.65400E-03 2.50000E-02
 -1       529 0.00000E+00 3.65400E-03 2.90000E-02
 -1       530 0.00000E+00 1.63600E-03 1.47220E-02
 -1       531 0.00000E+00 1.34600E-03 1.90000E-02
 -1       532 0.00000E+00 3.65400E-03 2.10000E-02
 -1       533 0.00000E+00 3.39500E-03 4.73200E-03
 -1       534 0.00000E+00 1.34600E-03 2.70000E-02
 -1       535 0.00000E+00 3.65000E-03 1.10590E-02
 -1       536 0.00000E+00 1.35200E-03 1.29590E-02
 -1       537 0.00000E+00 3.67300E-03 5.50560E-02
 -1       538 0.00000E+00 1.33000E-03 6.49260E-02
 -1       539 0.00000E+00 3.48900E-03 9.55070E-02
 -1       540 0.00000E+00 1.40200E-03 8.45970E-02
 -1       541 0.00000E+00 1.41300E-03 9.40800E-03
 -1       542 0.00000E+00 1.40100E-03 6.60000E-03
 -1       543 0.00000E+00 3.57600E-03 6.85680E-02
 -1       544 0.00000E+00 3.58900E-03 9.25920E-02
 -1       545 0.00000E+00 1.41100E-03 8.74060E-02
 -1       546 0.00000E+00 3.34200E-03 7.14950E-02
 -1       547 0.00000E+00 3.85200E-03 9.87380E-02
 -1       548 0.00000E+00 1.17000E-03 1.31200E-03
 -1       549 0.00000E+00 3.85200E-03 1.26200E-03
 -1       550 0.00000E+00 1.17600E-03 9.86930E-02
 -1       551 0.00000E+00 5.88000E-04 9.93460E-02
 -1       552 0.00000E+00 5.88000E-04 9.83460E-02
 -1       553 0.00000E+00 1.42100E-03 9.93460E-02
 -1       554 0.00000E+00 5.85000E-04 1.65600E-03
 -1       555 0.00000E+00 5.85000E-04 6.56000E-04
 -1       556 0.00000E+00 1.41800E-03 6.56000E-04
 -1       557 0.00000E+00 4.42600E-03 9.93690E-02
 -1       558 0.00000E+00 3.59300E-03 9.93690E-02
 -1       559 0.00000E+00 4.42600E-03 9.83690E-02
 -1       560 0.00000E+00 4.42600E-03 6.31000E-04
 -1       561 0.00000E+00 4.42600E-03 1.63100E-03
 -1       562 0.00000E+00 3.59300E-03 6.31000E-04
 -1       563 0.00000E+00 8.30000E-04 3.56200E-03
 -1       564 0.00000E+00 8.30000E-04 2.56200E-03
 -1       565 0.00000E+00 1.41500E-03 2.21800E-03
 -1       566 0.00000E+00 8.66000E-04 5.50000E-03
 -1       567 0.00000E+00 8.66000E-04 4.50000E-03
 -1       568 0.00000E+00 1.69600E-03 4.06200E-03
 -1       569 0.00000E+00 7.00000E-04 7.30000E-03
 -1       570 0.00000E+00 7.00000E-04 6.30000E-03
 -1       571 0.00000E+00 1.56700E-03 5.80000E-03
 -1       572 0.00000E+00 7.06000E-04 9.70400E-03
 -1       573 0.00000E+00 7.06000E-04 8.70400E-03
 -1       574 0.00000E+00 8.93000E-04 8.00000E-03
 -1       575 0.00000E+00 1.60000E-03 8.70400E-03
 -1       576 0.00000E+00 1.59400E-03 7.30000E-03
 -1       577 0.00000E+00 9.27000E-04 1.15350E-02
 -1       578 0.00000E+00 9.27000E-04 1.05350E-02
 -1       579 0.00000E+00 1.63400E-03 1.02400E-02
 -1       580 0.00000E+00 6.76000E-04 1.34790E-02
 -1       581 0.00000E+00 6.76000E-04 1.24790E-02
 -1       582 0.00000E+00 1.60300E-03 1.20150E-02