    1C
    1UShell Verification                                                
    1UUSER                                                              
    1UDATE              20.december.2025                                
    1UTIME              23:55:14                                        
    1UHOST                                                              
    1UPGM               CalculiX                                        
    1UVERSION           Version 2.22                             
    1UCOMPILETIME       Sun Aug  4 19:39:24     2024                    
    1UDIR                                                               
    1UDBN                                                               
    1UMAT    1MAT1                                                      
    2C                            27                                     1
 -1         1 0.00000E+00 0.00000E+00 0.00000E+00
 -1         2 1.00000E+00 0.00000E+00 0.00000E+00
 -1         5 5.00000E-01 0.00000E+00 0.00000E+00
 -1        13 0.00000E+00 0.00000E+00-5.00000E-01
 -1        15 0.00000E+00 0.00000E+00 5.00000E-01
 -1        16 1.00000E+00 0.00000E+00-5.00000E-01
 -1        18 1.00000E+00 0.00000E+00 5.00000E-01
 -1        19 1.00000E+00 1.00000E+00-5.00000E-01
 -1        21 1.00000E+00 1.00000E+00 5.00000E-01
 -1        22 0.00000E+00 1.00000E+00-5.00000E-01
 -1        24 0.00000E+00 1.00000E+00 5.00000E-01
 -1        25 5.00000E-01 0.00000E+00-5.00000E-01
 -1        27 5.00000E-01 0.00000E+00 5.00000E-01
 -1        28 1.00000E+00 5.00000E-01-5.00000E-01
 -1        30 1.00000E+00 5.00000E-01 5.00000E-01
 -1        31 5.00000E-01 1.00000E+00-5.00000E-01
 -1        33 5.00000E-01 1.00000E+00 5.00000E-01
 -1        34 0.00000E+00 5.00000E-01-5.00000E-01
 -1        36 0.00000E+00 5.00000E-01 5.00000E-01
 -1        37 7.50000E-01 7.50000E-01-5.00000E-01
 -1        39 7.50000E-01 7.50000E-01 5.00000E-01
 -1        40 6.25000E-01 3.75000E-01-5.00000E-01
 -1        42 6.25000E-01 3.75000E-01 5.00000E-01
 -1        43 2.81250E-01 2.81250E-01-5.00000E-01
 -1        45 2.81250E-01 2.81250E-01 5.00000E-01
 -1        46 3.45703E-01 6.54297E-01-5.00000E-01
 -1        48 3.45703E-01 6.54297E-01 5.00000E-01
 -3
    3C                            14                                     1
 -1        13    2    0    1
 -2        16        40        25        18        42        27
 -1        14    2    0    1
 -2        28        40        16        30        42        18
 -1        15    2    0    1
 -2        22        46        31        24        48        33
 -1        16    2    0    1
 -2        34        46        22        36        48        24
 -1        17    2    0    1
 -2        25        43        13        27        45        15
 -1        18    2    0    1
 -2        13        43        34        15        45        36
 -1        19    2    0    1
 -2        19        37        28        21        39        30
 -1        20    2    0    1
 -2        31        37        19        33        39        21
 -1        21    2    0    1
 -2        37        46        40        39        48        42
 -1        22    2    0    1
 -2        31        46        37        33        48        39
 -1        23    2    0    1
 -2        37        40        28        39        42        30
 -1        24    2    0    1
 -2        40        46        43        42        48        45
 -1        25    2    0    1
 -2        43        46        34        45        48        36
 -1        26    2    0    1
 -2        40        43        25        42        45        27
 -3
    1PSTEP                         1           1           1          
  100CL  101 1.000000000          27                     1    1           1
 -4  NDTEMP      1    1
 -5  T           1    1    0    0
 -1         1 2.93000E+02
 -1         2 2.93000E+02
 -1         5 2.93000E+02
 -1        13 2.93000E+02
 -1        15 2.93000E+02
 -1        16 2.93000E+02
 -1        18 2.93000E+02
 -1        19 5.46883E+02
 -1        21 5.46883E+02
 -1        22 5.44493E+02
 -1        24 5.44493E+02
 -1        25 2.93000E+02
 -1        27 2.93000E+02
 -1        28 3.94191E+02
 -1        30 3.94191E+02
 -1        31 4.98175E+02
 -1        33 4.98175E+02
 -1        34 3.95273E+02
 -1        36 3.95273E+02
 -1        37 4.54783E+02
 -1        39 4.54783E+02
 -1        40 3.67583E+02
 -1        42 3.67583E+02
 -1        43 3.48543E+02
 -1        45 3.48543E+02
 -1        46 4.27523E+02
 -1        48 4.27523E+02
 -3
    1PSTEP                         2           1           1          
  100CL  101 1.000000000          24                     1    1           1
 -4  RFL         1    1
 -5  RFL         1    1    0    0
 -1        13-2.47959E+01
 -1        15-2.47959E+01
 -1        16-2.50794E+01
 -1        18-2.50794E+01
 -1        19 4.60497E+01
 -1        21 4.60497E+01
 -1        22 4.48169E+01
 -1        24 4.48169E+01
 -1        25-4.95575E+01
 -1        27-4.95575E+01
 -1        28-3.88220E+00
 -1        30-3.88220E+00
 -1        31 4.32645E+01
 -1        33 4.32645E+01
 -1        34-3.92745E+00
 -1        36-3.92745E+00
 -1        37-8.30239E+00
 -1        39-8.30239E+00
 -1        40-5.23661E+00
 -1        42-5.23661E+00
 -1        43-3.12179E+00
 -1        45-3.12179E+00
 -1        46-1.02278E+01
 -1        48-1.02278E+01
 -3
 9999
