
                        S T E P       1


                                INCREMENT     1


 stresses (elem, integ.pnt.,sxx,syy,szz,sxy,sxz,syz) for set E1 and time  0.1000000E+01

         1   1  4.058285E+01  3.197442E-13  3.964179E+01  9.074601E+00  9.916311E+00  2.463727E+00
         1   2  1.594558E+01  4.440892E-13  2.355891E+01  3.565540E+00 -2.255645E+01 -2.463727E+00
         1   3 -5.160097E+01 -7.531753E-13 -3.717806E+01 -1.153833E+01  4.473000E+01  7.972789E+00
         1   4 -4.927454E+00 -5.471179E-13  1.003788E+02 -1.101812E+00 -3.208986E+01 -7.972789E+00
