
                        S T E P       1


                                INCREMENT     1


 stresses (elem, integ.pnt.,sxx,syy,szz,sxy,sxz,syz) for set E1 and time  0.1000000E+01

         1   1 -2.224201E-02  5.853981E-03  1.520919E-02 -7.424240E-03 -1.201267E-02  9.471940E-03
         1   2  7.910999E-02  1.501234E-01  2.118725E-01  1.944685E-01 -1.633098E-01 -1.987832E-01
         1   3 -1.076542E-03 -6.644055E-03 -9.343177E-03 -2.646360E-03  2.222347E-03  6.275318E-03
         1   4  1.385172E-03 -1.930454E-03 -5.025978E-03 -1.287311E-02  1.709679E-02  3.199993E-03
