
                        S T E P       1


                                INCREMENT     1


 stresses (elem, integ.pnt.,sxx,syy,szz,sxy,sxz,syz) for set E1 and time  0.1000000E+01

         1   1 -1.049674E+01  1.049674E+01  8.444719E+01  3.651676E-12  1.049674E+01  2.347143E+01
         1   2  3.396817E+01 -3.396817E+01  3.243672E+00  1.180008E-11 -1.049674E+01 -2.057899E-12
         1   3 -3.396817E+01  3.396817E+01 -1.774981E+01  9.299953E-12  3.396817E+01 -2.347143E+01
         1   4  1.049674E+01 -1.049674E+01  1.523835E+02 -1.175630E-12 -3.396817E+01  3.367073E-12
