
                        S T E P       1


                                INCREMENT     1


 stresses (elem, integ.pnt.,sxx,syy,szz,sxy,sxz,syz) for set E1 and time  0.1000000E+01

         1   1 -2.183090E-02 -3.801873E-02 -4.004990E-03  3.550765E-03  6.081543E-03  9.007546E-03
         1   2 -8.782469E-02  6.213392E-02 -9.019161E-02 -5.099882E-02  1.703425E-01 -4.953598E-02
         1   3  3.781684E-02 -2.113350E-02  6.045862E-03 -6.176626E-02 -2.322230E-02  6.958782E-02
         1   4  4.298978E-01  8.609702E-01  3.268751E-01  6.102381E-01 -4.469040E-01 -6.619222E-01
