
                        S T E P       1


                                INCREMENT     1


 stresses (elem, integ.pnt.,sxx,syy,szz,sxy,sxz,syz) for set E1 and time  0.1000000E+01

         1   1  8.956647E+00  5.368032E-01  1.458625E+01 -2.681067E+00 -3.699516E+00  2.725826E+00
         1   2 -2.311150E+00 -3.641281E-01 -2.530453E+00  2.890895E+00  2.635296E+00 -4.538481E+00
         1   3  1.171766E+01  1.298008E+01 -1.850795E+01 -6.482912E+01  2.033007E+01  2.387276E+01
         1   4 -3.144283E+00 -9.022937E-01  4.483979E+00  2.738341E+00 -3.698858E+00  3.571291E+00
