
                        S T E P       1


                                INCREMENT     1


 stresses (elem, integ.pnt.,sxx,syy,szz,sxy,sxz,syz) for set E1 and time  0.1000000E+01

         1   1 -4.093437E+00 -2.534044E-10  1.090131E+01 -9.153203E-01  3.166710E+01  7.538640E+00
         1   2  1.324664E+01  6.016698E-10 -2.828495E+00  2.962039E+00  2.529883E+00 -9.153203E-01
         1   3 -4.286703E+01 -5.814016E-10 -5.358378E+00 -9.585358E+00  1.529336E+01  2.962039E+00
         1   4  3.371382E+01  1.861409E-10  1.022924E+02  7.538640E+00 -4.949035E+01 -9.585358E+00
