
                        S T E P       1


                                INCREMENT     1


 stresses (elem, integ.pnt.,sxx,syy,szz,sxy,sxz,syz) for set E1 and time  0.1000000E+01

         1   1 -2.478373E-11 -6.430412E-12  1.571569E+02 -4.460825E-11 -3.310153E-12  4.066978E-11
         1   2 -5.330669E-11 -4.192202E-12 -3.403113E+01  1.517810E-11  1.342013E-12  1.742646E-12
         1   3  1.371347E-12 -1.330491E-12 -3.403113E+01 -2.023309E-11 -4.244307E-11  7.185133E-12
         1   4 -1.667644E-11 -1.661249E-11  1.571569E+02  4.132218E-11  4.203368E-12  1.266265E-11
