
                        S T E P       1


                                INCREMENT     1


 stresses (elem, integ.pnt.,sxx,syy,szz,sxy,sxz,syz) for set E1 and time  0.1000000E+01

         1   1 -3.801873E-02 -2.183090E-02 -4.004985E-03  3.550767E-03  9.007546E-03  6.081542E-03
         1   2 -2.113350E-02  3.781685E-02  6.045867E-03 -6.176626E-02  6.958782E-02 -2.322230E-02
         1   3  6.213393E-02 -8.782470E-02 -9.019160E-02 -5.099882E-02 -4.953599E-02  1.703425E-01
         1   4  8.609702E-01  4.298978E-01  3.268752E-01  6.102381E-01 -6.619222E-01 -4.469039E-01
