
                        S T E P       1


                                INCREMENT     1


 stresses (elem, integ.pnt.,sxx,syy,szz,sxy,sxz,syz) for set E1 and time  0.1000000E+01

         1   1  5.800586E-01  4.112757E-01  2.896881E-01 -5.426975E-01  4.114737E-01 -3.978812E-01
         1   2 -1.403578E-02 -5.329495E-03  2.517254E-02  8.819761E-03 -4.158585E-02  3.174874E-02
         1   3 -2.550099E-02 -1.810705E-02 -1.429033E-02  1.721655E-02  2.176624E-03  8.093344E-03
         1   4  4.041651E-02  1.543773E-02 -5.823102E-02  2.497878E-02 -3.292094E-02 -2.079287E-02
