
                        S T E P       1


                                INCREMENT     1


 stresses (elem, integ.pnt.,sxx,syy,szz,sxy,sxz,syz) for set E1 and time  0.1000000E+01

         1   1  7.561393E+00 -7.561393E+00  6.915572E+00 -4.641219E-13  2.785074E+01 -3.381558E+00
         1   2 -2.446918E+01  2.446918E+01  4.426516E+00 -5.166640E-13 -3.381558E+00  1.094295E+01
         1   3  2.446918E+01 -2.446918E+01  1.954930E+01 -7.093184E-13 -3.541213E+01  2.785074E+01
         1   4 -7.561393E+00  7.561393E+00  5.585393E+01  1.795189E-13  1.094295E+01 -3.541213E+01
