    1C
    1UTet10 Unit Test                                                   
    1UUSER                                                              
    1UDATE              20.december.2025                                
    1UTIME              23:48:20                                        
    1UHOST                                                              
    1UPGM               CalculiX                                        
    1UVERSION           Version 2.22                             
    1UCOMPILETIME       Sun Aug  4 19:39:24     2024                    
    1UDIR                                                               
    1UDBN                                                               
    1UMAT    1STEEL                                                     
    2C                            10                                     1
 -1         1 0.00000E+00 0.00000E+00 0.00000E+00
 -1         2 1.00000E+00 0.00000E+00 0.00000E+00
 -1         3 0.00000E+00 1.00000E+00 0.00000E+00
 -1         4 0.00000E+00 0.00000E+00 1.00000E+00
 -1         5 5.00000E-01 0.00000E+00 0.00000E+00
 -1         6 5.00000E-01 5.00000E-01 0.00000E+00
 -1         7 0.00000E+00 5.00000E-01 0.00000E+00
 -1         8 0.00000E+00 0.00000E+00 5.00000E-01
 -1         9 5.00000E-01 0.00000E+00 5.00000E-01
 -1        10 0.00000E+00 5.00000E-01 5.00000E-01
 -3
    3C                             1                                     1
 -1         1    6    0    1
 -2         3         1         2         4         7         5         6        10         8         9
 -3
    1PSTEP                         1           1           1          
  100CL  101 1.000000000          10                     0    1           1
 -4  STRESS      6    1
 -5  SXX         1    4    1    1
 -5  SYY         1    4    2    2
 -5  SZZ         1    4    3    3
 -5  SXY         1    4    1    2
 -5  SYZ         1    4    2    3
 -5  SZX         1    4    3    1
 -1         1-3.14366E-11 1.39092E-10 2.10000E+02 2.75623E-12-3.45059E-11 2.09702E-11
 -1         2-1.87498E-11-8.71644E-11-1.40001E+02 1.89010E-11 4.75954E-12-1.16670E-11
 -1         3-2.34686E-11 6.00003E-11-1.40001E+02 4.03880E-12 2.48353E-11-1.03159E-11
 -1         4 5.31206E-11-1.14332E-11 2.10000E+02 7.14244E-12-5.16818E-12 4.50229E-12
 -1         5-2.50932E-11 2.59637E-11 3.49996E+01 1.08286E-11-1.48732E-11 4.65160E-12
 -1         6-2.11092E-11-1.35821E-11-1.40001E+02 1.14699E-11 1.47974E-11-1.09914E-11
 -1         7-2.74526E-11 9.95461E-11 3.49996E+01 3.39752E-12-4.83530E-12 5.32716E-12
 -1         8 1.08420E-11 6.38294E-11 2.10000E+02 4.94933E-12-1.98370E-11 1.27362E-11
 -1         9 1.71854E-11-4.92988E-11 3.49996E+01 1.30217E-11-2.04317E-13-3.58234E-12
 -1        10 1.48260E-11 2.42836E-11 3.49996E+01 5.59062E-12 9.83355E-12-2.90678E-12
 -3
    1PSTEP                         2           1           1          
  100CL  101 1.000000000          10                     0    1           1
 -4  ERROR       1    1
 -5  STR(%)      1    1    0    0
 -1         1 3.00000E+01
 -1         2 3.00000E+01
 -1         3 3.00000E+01
 -1         4 3.00000E+01
 -1         5 3.00000E+01
 -1         6 3.00000E+01
 -1         7 3.00000E+01
 -1         8 3.00000E+01
 -1         9 3.00000E+01
 -1        10 3.00000E+01
 -3
 9999
