
                        S T E P       1


                                INCREMENT     1


 stresses (elem, integ.pnt.,sxx,syy,szz,sxy,sxz,syz) for set E1 and time  0.1000000E+01

         1   1  4.529532E-11  3.827694E-11 -2.562306E+01 -4.574666E-11  1.838974E-12 -5.403080E-12
         1   2 -6.652101E-11 -7.602807E-12  1.756231E+02  2.055163E-11  4.220882E-12 -1.225982E-12
         1   3 -7.275958E-12 -4.553158E-11  1.756231E+02  1.311801E-11 -8.546849E-12  4.062380E-11
         1   4  3.623057E-11  1.719513E-12 -2.562306E+01 -2.882810E-11 -7.110698E-12  3.702467E-11
