
                        S T E P       1


                                INCREMENT     1


 stresses (elem, integ.pnt.,sxx,syy,szz,sxy,sxz,syz) for set E1 and time  0.1000000E+01

         1   1  2.459897E+00 -1.944490E+00  6.665833E+00 -2.732567E+00 -2.529654E+00  6.838922E+00
         1   2  1.441354E+00  1.737166E+00 -6.596460E-01  2.054642E+00 -1.883126E+00 -7.561520E-01
         1   3 -6.338761E+00 -7.187911E+00 -8.812310E-01  2.410817E+00  2.012891E+00 -1.997545E+00
         1   4 -7.323339E+00  4.330536E+01  4.074031E+01 -2.542643E+01  4.867239E+01 -4.830133E+01
