
                        S T E P       1


                                INCREMENT     1


 stresses (elem, integ.pnt.,sxx,syy,szz,sxy,sxz,syz) for set E1 and time  0.1000000E+01

         1   1 -9.592327E-14  2.759647E-01  7.235916E+01  2.782042E+01 -2.306813E+01 -1.309901E+01
         1   2  4.263256E-13 -3.771809E+01 -5.002316E+01  1.751404E-13 -2.276825E-13  2.881405E+01
         1   3 -5.950795E-14  4.440319E+00 -2.286844E+01 -4.752296E+00  2.782042E+01 -1.104384E+01
         1   4  5.755396E-13  1.066247E+01  6.595108E+01 -2.306813E+01 -4.752296E+00  1.239453E+01
