
                        S T E P       1


                                INCREMENT     1


 stresses (elem, integ.pnt.,sxx,syy,szz,sxy,sxz,syz) for set E1 and time  0.1000000E+01

         1   1  1.281003E-02  3.353710E-02 -4.966020E-02  2.072706E-02 -1.628342E-02 -2.694680E-02
         1   2 -1.502502E-02 -2.116043E-02 -2.427410E-03  1.428610E-02 -5.976835E-03  5.068200E-03
         1   3 -4.422355E-03 -1.164673E-02  3.130434E-03  7.318538E-03 -2.924093E-02  3.883566E-02
         1   4  3.412718E-01  4.813261E-01  1.848878E-01 -4.503241E-01  4.392095E-01 -3.724383E-01
