
                        S T E P       1


                                INCREMENT     1


 stresses (elem, integ.pnt.,sxx,syy,szz,sxy,sxz,syz) for set E1 and time  0.1000000E+01

         1   1  7.013630E+01  3.790391E+01  2.548209E+02  5.203711E+01 -7.290884E+01 -4.601038E+01
         1   2 -4.032007E+00 -7.367727E+00 -1.899011E+01  9.413453E-01  5.128043E+00  8.243174E+00
         1   3 -3.225667E+00  6.798973E-01  9.943930E-01  7.654136E-01  1.611196E-01  8.910819E-01
         1   4 -1.896974E-01  5.074467E-01  1.617968E+01 -3.632353E+00  1.757557E+00 -1.376182E+00
