
                        S T E P       1


                                INCREMENT     1


 stresses (elem, integ.pnt.,sxx,syy,szz,sxy,sxz,syz) for set E1 and time  0.1000000E+01

         1   1  3.601483E+01  3.873988E+01  7.938975E+01  5.982102E+01  9.666442E+01  6.748407E+01
         1   2 -1.981844E-01  3.092825E-01  9.582120E-01  2.123649E-01 -2.977247E-01  1.187657E+00
         1   3 -1.360530E+01 -1.366219E+01 -1.205057E+00 -1.365132E+01  5.437772E+00  5.271237E+00
         1   4  1.626195E+01  1.471708E+01  4.702909E+01  1.212117E+01 -2.042209E+01 -1.997131E+01
