
                        S T E P       1


                                INCREMENT     1


 stresses (elem, integ.pnt.,sxx,syy,szz,sxy,sxz,syz) for set E1 and time  0.1000000E+01

         1   1  1.867520E+01  3.609979E+01  2.070258E+02  2.622756E+01 -2.734482E+01 -4.343639E+01
         1   2 -5.390721E+00 -5.297673E+00 -3.243919E+01 -1.707030E-01  5.094369E+00  1.225257E+01
         1   3 -5.687073E+00 -1.050524E+01 -7.384435E+01 -1.104225E+01  2.225045E+01  3.118382E+01
         1   4 -4.738181E-01 -1.265830E+00  1.108255E+01 -9.363968E-01 -1.996600E-12 -1.961572E-11
