
                        S T E P       1


                                INCREMENT     1


 stresses (elem, integ.pnt.,sxx,syy,szz,sxy,sxz,syz) for set E1 and time  0.1000000E+01

         1   1 -7.735016E-04 -5.046784E-03  1.085664E-03  3.086384E-03  7.051500E-03 -6.331495E-03
         1   2 -4.315558E-02 -5.793324E-02 -8.244746E-02  6.026979E-02 -1.063908E-01  7.989090E-02
         1   3  1.218519E-02  1.178408E-02 -3.167772E-03 -2.284075E-02  4.070062E-03  4.223273E-03
         1   4  5.872683E-04  2.929752E-03  3.647414E-03 -8.201613E-04  1.443298E-03 -1.648072E-03
