
                        S T E P       1


                                INCREMENT     1


 stresses (elem, integ.pnt.,sxx,syy,szz,sxy,sxz,syz) for set E1 and time  0.1000000E+01

         1   1  2.283349E+01 -2.910234E-09  1.436637E+01  2.822375E+00  1.385738E+01  1.744324E+00
         1   2 -4.125758E+01  1.194756E-09 -1.893307E+01 -4.566699E+00  2.806647E+01  2.822375E+00
         1   3  2.175721E-01 -5.913714E-12 -4.547627E-01 -2.732627E-11 -5.136181E-02 -5.018866E-11
         1   4  1.493543E+01  6.184564E-10  1.031925E+02  1.744324E+00 -4.110029E+01 -4.566699E+00
