
                        S T E P       1


                                INCREMENT     1


 stresses (elem, integ.pnt.,sxx,syy,szz,sxy,sxz,syz) for set E1 and time  0.1000000E+01

         1   1 -5.487314E+00 -5.104946E+00 -4.988242E+00 -7.752602E-01  6.262575E+00  5.880206E+00
         1   2  2.701254E+01  1.101450E+01  1.418365E+01  1.950138E+01 -2.583968E+01 -1.297314E+01
         1   3 -8.238243E+00  3.706294E+00 -3.987088E-02 -9.896742E+00  2.404411E+00  6.101294E+00
         1   4  3.174966E+00  5.698990E+00  4.118318E+01 -6.503598E+00 -1.615033E+00 -1.664898E+01
