
                        S T E P       1


                                INCREMENT     1


 stresses (elem, integ.pnt.,sxx,syy,szz,sxy,sxz,syz) for set E1 and time  0.1000000E+01

         1   1  5.782042E-13 -1.314951E+01  8.579737E-01  1.314951E+01 -2.127635E+01  1.764192E+01
         1   2  6.217249E-15  6.574755E+00  9.944061E+00  1.488693E-13  8.757018E-14 -4.757537E+00
         1   3  6.128431E-13 -1.539571E+01 -9.515075E+00  8.126844E+00  1.314951E+01 -1.539571E+01
         1   4 -5.888623E-13  2.246204E+00  1.388231E+00 -2.127635E+01  8.126844E+00  1.678394E+01
