
                        S T E P       1


                                INCREMENT     1


 stresses (elem, integ.pnt.,sxx,syy,szz,sxy,sxz,syz) for set E1 and time  0.1000000E+01

         1   1 -2.358078E-10 -2.081823E+00  9.740376E+01 -2.327549E+00  3.423406E+01  4.047953E+01
         1   2  5.990710E-10 -2.180113E+01 -8.175424E+00 -2.437441E+01 -7.532105E+00 -1.659657E+01
         1   3  4.370815E-10 -6.736920E+00  1.907599E+01 -7.532105E+00 -2.327549E+00  2.982469E+01
         1   4  5.452137E-10  3.061987E+01  1.179183E+02  3.423406E+01 -2.437441E+01 -5.370764E+01
