
                        S T E P       1


                                INCREMENT     1


 stresses (elem, integ.pnt.,sxx,syy,szz,sxy,sxz,syz) for set E1 and time  0.1000000E+01

         1   1  6.899998E+00 -1.279342E+01  9.599995E+00  1.604847E+00 -1.583641E+01  2.477801E+01
         1   2 -8.744099E+00 -3.973174E+00 -1.969073E+01  9.289656E+00  1.331867E+01 -1.602386E+01
         1   3 -2.856058E+00  3.519518E+00  2.097550E+01 -1.701419E+00  2.517736E+00 -8.754153E+00
         1   4  1.152766E+01  3.248992E+01  4.709009E+01 -2.254705E+01 -1.131757E-10  2.161232E-11
