
                        S T E P       1


                                INCREMENT     1


 stresses (elem, integ.pnt.,sxx,syy,szz,sxy,sxz,syz) for set E1 and time  0.1000000E+01

         1   1 -1.314951E+01  2.744471E-13  8.579737E-01  1.314951E+01  1.764192E+01 -2.127635E+01
         1   2 -1.539571E+01  2.007283E-13 -9.515075E+00  8.126844E+00 -1.539571E+01  1.314951E+01
         1   3  6.574755E+00  1.607603E-13  9.944061E+00 -1.751404E-14 -4.757537E+00 -7.005614E-14
         1   4  2.246204E+00  7.438494E-14  1.388231E+00 -2.127635E+01  1.678394E+01  8.126844E+00
