
                        S T E P       1


                                INCREMENT     1


 stresses (elem, integ.pnt.,sxx,syy,szz,sxy,sxz,syz) for set E1 and time  0.1000000E+01

         1   1  1.049674E+01 -1.049674E+01  8.444719E+01 -1.549992E-12  2.347143E+01  1.049674E+01
         1   2  3.396817E+01 -3.396817E+01 -1.774981E+01 -7.055967E-12 -2.347143E+01  3.396817E+01
         1   3 -3.396817E+01  3.396817E+01  3.243672E+00  7.498196E-12 -2.036007E-12 -1.049674E+01
         1   4 -1.049674E+01  1.049674E+01  1.523835E+02  2.046953E-12 -6.550249E-12 -3.396817E+01
