
                        S T E P       1


                                INCREMENT     1


 stresses (elem, integ.pnt.,sxx,syy,szz,sxy,sxz,syz) for set E1 and time  0.1000000E+01

         1   1 -2.806644E-13  2.282985E+00  1.108184E+01 -2.162475E+01  1.336483E+01  2.282985E+00
         1   2  2.930989E-14  6.682415E+00  7.118426E+00  2.977386E-13  9.413794E-14 -1.846974E+00
         1   3 -7.123191E-13 -1.564782E+01 -1.336483E+01  8.259919E+00 -2.162475E+01  2.303571E+01
         1   4  8.539836E-13 -1.336483E+01  6.848956E+00  1.336483E+01  8.259919E+00 -1.793080E+01
