
                        S T E P       1


                                INCREMENT     1


 stresses (elem, integ.pnt.,sxx,syy,szz,sxy,sxz,syz) for set E1 and time  0.1000000E+01

         1   1 -1.312377E+01  7.760526E+01  4.768923E+01 -4.556538E+01 -2.853409E+01  5.451840E+01
         1   2  2.582975E+00  3.113084E+00  2.418551E+00  3.682016E+00 -2.890340E+00 -5.440039E+00
         1   3 -1.135936E+01 -1.288108E+01 -1.712405E+01  4.320300E+00  3.431866E+00  1.214048E+01
         1   4  4.408253E+00 -3.484620E+00  1.852017E+01 -4.896891E+00  5.021898E+00 -3.874164E+00
