
                        S T E P       1


                                INCREMENT     1


 stresses (elem, integ.pnt.,sxx,syy,szz,sxy,sxz,syz) for set E1 and time  0.1000000E+01

         1   1 -2.214279E-09  2.041642E+01  4.139574E+01  2.384454E+00  3.858128E+00  3.338236E+01
         1   2 -1.064224E-11  2.974165E-01 -4.646556E-01 -1.428160E-11 -8.568961E-11 -2.272060E-01
         1   3  4.753318E-10 -5.639824E+01 -1.031572E+01 -6.242582E+00  2.384454E+00  2.427455E+01
         1   4  1.929862E-09  3.121291E+01  1.012221E+02  3.858128E+00 -6.242582E+00 -5.401379E+01
