
                        S T E P       1


                                INCREMENT     1


 stresses (elem, integ.pnt.,sxx,syy,szz,sxy,sxz,syz) for set E1 and time  0.1000000E+01

         1   1  3.914933E+00  7.027214E+00  6.435561E-01 -8.019347E+00  6.095851E+00  2.152137E+01
         1   2  3.330816E+01  1.358157E+01  1.675462E+01  2.404643E+01 -2.549264E+01 -2.163131E+01
         1   3 -1.015827E+01  4.570095E+00 -9.067815E+00 -1.220331E+01  1.939679E+01  1.099325E-01
         1   4 -6.766205E+00 -6.294721E+00  8.821999E+00 -9.559448E-01 -3.502807E-14 -8.757018E-15
