
                        S T E P       1


                                INCREMENT     1


 stresses (elem, integ.pnt.,sxx,syy,szz,sxy,sxz,syz) for set E1 and time  0.1000000E+01

         1   1  2.759647E-01  1.186109E-10  7.235916E+01  2.782042E+01 -1.309901E+01 -2.306813E+01
         1   2  4.440319E+00 -2.594618E-10 -2.286844E+01 -4.752296E+00 -1.104384E+01  2.782042E+01
         1   3 -3.771809E+01  1.292619E-10 -5.002316E+01 -2.241796E-12  2.881405E+01  9.650233E-11
         1   4  1.066247E+01  1.439560E-10  6.595108E+01 -2.306813E+01  1.239453E+01 -4.752296E+00
