
                        S T E P       1


                                INCREMENT     1


 stresses (elem, integ.pnt.,sxx,syy,szz,sxy,sxz,syz) for set E1 and time  0.1000000E+01

         1   1 -1.339205E-03 -1.152199E-02 -6.577587E-03  2.748880E-03  1.879682E-03  1.016949E-03
         1   2  9.841186E-02  2.623583E-01  1.310548E-01 -2.020023E-01 -1.364602E-01  1.859895E-01
         1   3  1.677898E-03 -6.493112E-03  1.130581E-02  2.107656E-02 -6.885838E-03 -1.868452E-02
         1   4 -2.753747E-02  1.860957E-02 -2.615803E-02 -1.465294E-02  5.124643E-02 -1.545797E-02
