
                        S T E P       1


                                INCREMENT     1


 stresses (elem, integ.pnt.,sxx,syy,szz,sxy,sxz,syz) for set E1 and time  0.1000000E+01

         1   1 -2.081823E+00  4.508109E-10  9.740376E+01 -2.327549E+00  4.047953E+01  3.423406E+01
         1   2 -6.736920E+00  5.002905E-10  1.907599E+01 -7.532105E+00  2.982469E+01 -2.327549E+00
         1   3 -2.180113E+01 -1.475584E-09 -8.175424E+00 -2.437441E+01 -1.659657E+01 -7.532105E+00
         1   4  3.061987E+01 -2.244903E-09  1.179183E+02  3.423406E+01 -5.370764E+01 -2.437441E+01
