
                        S T E P       1


                                INCREMENT     1


 stresses (elem, integ.pnt.,sxx,syy,szz,sxy,sxz,syz) for set E1 and time  0.1000000E+01

         1   1  6.931192E-01 -2.591068E-01  1.365277E+01 -4.961415E+00  6.148017E+00  2.819883E+00
         1   2  9.286688E-01 -4.405924E+00  2.846327E+00  1.045475E+00 -3.191269E+00  3.140377E+00
         1   3 -1.006355E+01 -5.507301E+00 -2.410420E+00  1.285779E+00 -2.481548E+00 -2.782850E+00
         1   4  5.177278E+01  9.579887E+01  3.129224E+02  7.107727E+01 -6.000467E+01 -6.729026E+01
