
                        S T E P       1


                                INCREMENT     1


 stresses (elem, integ.pnt.,sxx,syy,szz,sxy,sxz,syz) for set E1 and time  0.1000000E+01

         1   1  8.162882E+00 -1.461812E+00  1.056859E+01 -2.956578E+00 -1.892702E+00  1.999809E+00
         1   2  5.117170E+00  4.866775E-01  7.858578E+00  5.618733E-01  1.826064E+00 -1.549589E+00
         1   3 -6.366969E+01  1.176803E+01 -1.403894E+02  1.358629E+01  1.002959E+02 -3.746960E+01
         1   4 -3.586044E+00  6.027061E-02  1.280542E+01  8.390711E-01 -4.963270E+00  1.417916E+00
