
                        S T E P       1


                                INCREMENT     1


 stresses (elem, integ.pnt.,sxx,syy,szz,sxy,sxz,syz) for set E1 and time  0.1000000E+01

         1   1 -8.881784E-13  1.558318E+01  6.688076E+01 -3.371404E+01  4.065952E+01  1.626405E-02
         1   2 -7.105427E-15 -5.512494E+01 -4.401031E+01 -1.506207E-12  4.553649E-13  1.301323E+01
         1   3 -5.240253E-14  6.489521E+00  8.214284E+00 -6.945474E+00 -3.371404E+01  1.659652E+01
         1   4  9.023893E-13  4.033221E-01  8.175872E+01  4.065952E+01 -6.945474E+00 -2.191865E+01
