
                        S T E P       1


                                INCREMENT     1


 stresses (elem, integ.pnt.,sxx,syy,szz,sxy,sxz,syz) for set E1 and time  0.1000000E+01

         1   1 -1.152199E-02 -1.339205E-03 -6.577588E-03  2.748880E-03  1.016949E-03  1.879682E-03
         1   2 -6.493112E-03  1.677899E-03  1.130581E-02  2.107656E-02 -1.868452E-02 -6.885838E-03
         1   3  2.623583E-01  9.841185E-02  1.310548E-01 -2.020023E-01  1.859895E-01 -1.364602E-01
         1   4  1.860957E-02 -2.753747E-02 -2.615803E-02 -1.465295E-02 -1.545797E-02  5.124643E-02
