
                        S T E P       1


                                INCREMENT     1


 stresses (elem, integ.pnt.,sxx,syy,szz,sxy,sxz,syz) for set E1 and time  0.1000000E+01

         1   1 -9.947598E-14  4.058285E+01  3.964179E+01  9.074601E+00  2.463727E+00  9.916311E+00
         1   2 -1.918465E-13 -5.160097E+01 -3.717806E+01 -1.153833E+01  7.972789E+00  4.473000E+01
         1   3 -2.025047E-13  1.594558E+01  2.355891E+01  3.565540E+00 -2.463727E+00 -2.255645E+01
         1   4  4.760636E-13 -4.927454E+00  1.003788E+02 -1.101812E+00 -7.972789E+00 -3.208986E+01
