
                        S T E P       1


                                INCREMENT     1


 stresses (elem, integ.pnt.,sxx,syy,szz,sxy,sxz,syz) for set E1 and time  0.1000000E+01

         1   1  1.558318E+01  1.847411E-13  6.688076E+01 -3.371404E+01  1.626405E-02  4.065952E+01
         1   2  6.489521E+00  1.714184E-13  8.214284E+00 -6.945474E+00  1.659652E+01 -3.371404E+01
         1   3 -5.512494E+01 -2.486900E-13 -4.401031E+01  2.451965E-13  1.301323E+01  0.000000E+00
         1   4  4.033221E-01 -3.694822E-13  8.175872E+01  4.065952E+01 -2.191865E+01 -6.945474E+00
