
                        S T E P       1


                                INCREMENT     1


 stresses (elem, integ.pnt.,sxx,syy,szz,sxy,sxz,syz) for set E1 and time  0.1000000E+01

         1   1  1.568041E+01  4.419417E+01  6.258962E+01 -3.066946E+01  1.498905E+01 -1.352471E+01
         1   2 -1.189410E+01 -5.404481E+00 -2.616978E+01  1.263619E+01 -1.885872E+01  1.456463E+01
         1   3 -3.884932E+00  4.787399E+00  7.839472E+00 -2.314343E+00  2.774543E+00  9.434717E+00
         1   4  9.385672E+00 -1.740216E+01  3.373329E+01  2.182981E+00  9.972709E+00 -1.848493E+01
