
                        S T E P       1


                                INCREMENT     1


 stresses (elem, integ.pnt.,sxx,syy,szz,sxy,sxz,syz) for set E1 and time  0.1000000E+01

         1   1 -7.595503E-01 -2.646856E+00  4.763701E+00  2.305134E+00 -4.551894E+00  3.455419E+00
         1   2  1.092663E+01  9.863919E+00 -2.951582E+01 -5.457311E+01  2.355041E+01  2.759535E+01
         1   3 -3.065229E-01 -1.945525E+00 -2.719275E+00  2.433554E+00  1.693460E+00 -2.706419E+00
         1   4  4.518806E-01  7.539700E+00  1.411713E+01 -2.256921E+00 -4.895583E-01 -2.168529E+00
