
                        S T E P       1


                                INCREMENT     1


 stresses (elem, integ.pnt.,sxx,syy,szz,sxy,sxz,syz) for set E1 and time  0.1000000E+01

         1   1 -2.697305E+01 -8.772376E+00  3.448445E+01  7.492134E-01  1.002215E+01  2.355744E+01
         1   2  7.245950E+00  1.920335E+01  9.013146E+00 -1.884513E+01  8.462350E+00 -1.691679E+01
         1   3  2.222437E+01 -2.121190E+02  1.757746E+01  1.811623E+01 -6.567311E+01  1.465726E+02
         1   4  5.223596E+00  3.247014E+00  3.050784E+01  1.015617E+01 -5.625906E+00 -7.043374E+00
