
                        S T E P       1


                                INCREMENT     1


 stresses (elem, integ.pnt.,sxx,syy,szz,sxy,sxz,syz) for set E1 and time  0.1000000E+01

         1   1  5.924464E-04  2.955585E-03  5.159659E-03 -8.273928E-04 -1.221077E-03 -4.655879E-04
         1   2 -4.353610E-02 -5.844405E-02 -1.170193E-01  6.080120E-02  9.006376E-02 -8.295247E-02
         1   3  1.229263E-02  1.188799E-02 -8.366460E-03 -2.304215E-02  6.643565E-03  6.893651E-03
         1   4 -7.803218E-04 -5.091282E-03  2.903535E-03  3.113598E-03 -9.446951E-03  8.365006E-03
