
                        S T E P       1


                                INCREMENT     1


 stresses (elem, integ.pnt.,sxx,syy,szz,sxy,sxz,syz) for set E1 and time  0.1000000E+01

         1   1  1.391598E+01  4.334311E-13  2.765125E+01  1.555853E+01 -5.065714E+00 -4.480969E+00
         1   2 -3.061764E+00  1.350031E-13  2.375503E+01 -3.423156E+00 -7.069664E+00  4.480969E+00
         1   3 -9.908075E+00  9.272583E-13 -5.771051E+01 -1.107756E+01  2.852837E+01  1.450072E+01
         1   4 -9.461370E-01 -3.907985E-13  1.091168E+02 -1.057813E+00 -1.639299E+01 -1.450072E+01
