
                        S T E P       1


                                INCREMENT     1


 stresses (elem, integ.pnt.,sxx,syy,szz,sxy,sxz,syz) for set E1 and time  0.1000000E+01

         1   1  3.433317E-03 -1.582715E-02 -2.252720E-03 -1.989669E-02  2.211672E-02  9.664941E-03
         1   2  1.142059E-02  9.136586E-03  1.848394E-03 -5.152509E-03  4.546610E-03 -2.562419E-03
         1   3 -9.848339E-03  3.731847E-02  3.803104E-02  1.302773E-02  1.275555E-02 -7.142551E-02
         1   4 -2.596940E-01 -1.816049E-01 -1.332035E-01  2.511855E-01 -3.341089E-01  1.883002E-01
