
                        S T E P       1


                                INCREMENT     1


 stresses (elem, integ.pnt.,sxx,syy,szz,sxy,sxz,syz) for set E1 and time  0.1000000E+01

         1   1 -1.917829E-02  1.296051E-02  5.004013E-03 -1.020495E-02 -6.307004E-03  8.010037E-03
         1   2  6.853828E-02  1.827177E-01  1.301505E-01 -1.406832E-01  1.671817E-01 -1.715657E-01
         1   3  1.168561E-03 -4.522085E-03 -1.739024E-03  1.467863E-02 -1.105160E-02  2.856168E-03
         1   4 -9.326803E-04 -8.024413E-03 -5.674451E-03  1.914440E-03 -2.290852E-03  5.401725E-03
