
                        S T E P       1


                                INCREMENT     1


 stresses (elem, integ.pnt.,sxx,syy,szz,sxy,sxz,syz) for set E1 and time  0.1000000E+01

         1   1  9.703622E+00 -9.703622E+00  1.011802E+02 -1.089351E-10 -2.290714E+00  3.369229E+01
         1   2 -3.140158E+01  3.140158E+01 -1.782440E+01  1.195771E-10  3.369229E+01 -2.398867E+01
         1   3  3.140158E+01 -3.140158E+01  1.582845E+00 -1.162757E-10 -7.412908E+00 -2.290714E+00
         1   4 -9.703622E+00  9.703622E+00  1.639833E+02  4.012684E-11 -2.398867E+01 -7.412908E+00
