
                        S T E P       1


                                INCREMENT     1


 stresses (elem, integ.pnt.,sxx,syy,szz,sxy,sxz,syz) for set E1 and time  0.1000000E+01

         1   1  3.353716E-02  1.281006E-02 -4.966024E-02  2.072710E-02 -2.694684E-02 -1.628347E-02
         1   2 -1.164673E-02 -4.422354E-03  3.130429E-03  7.318537E-03  3.883566E-02 -2.924093E-02
         1   3 -2.116043E-02 -1.502502E-02 -2.427409E-03  1.428609E-02  5.068198E-03 -5.976837E-03
         1   4  4.813260E-01  3.412719E-01  1.848872E-01 -4.503242E-01 -3.724380E-01  4.392096E-01
