
                        S T E P       1


                                INCREMENT     1


 stresses (elem, integ.pnt.,sxx,syy,szz,sxy,sxz,syz) for set E1 and time  0.1000000E+01

         1   1 -1.333333E-11  4.072120E-11 -4.326238E+01  6.344459E-12 -4.131123E-12  9.713722E-12
         1   2 -1.689671E-11  7.609202E-11  1.132624E+02  5.770875E-12  9.860402E-12 -1.682442E-11
         1   3 -1.122302E-11 -2.509282E-11 -4.326238E+01  1.299104E-11 -4.735357E-12  7.355895E-13
         1   4  2.091838E-11  8.775203E-12  1.132624E+02  7.732446E-12  2.495750E-12 -3.704218E-12
