
                        S T E P       1


                                INCREMENT     1


 stresses (elem, integ.pnt.,sxx,syy,szz,sxy,sxz,syz) for set E1 and time  0.1000000E+01

         1   1  2.282985E+00 -2.557954E-13  1.108184E+01 -2.162475E+01  2.282985E+00  1.336483E+01
         1   2 -1.564782E+01 -1.580958E-13 -1.336483E+01  8.259919E+00  2.303571E+01 -2.162475E+01
         1   3  6.682415E+00  1.065814E-14  7.118426E+00 -8.757018E-15 -1.846974E+00 -1.313553E-14
         1   4 -1.336483E+01  2.415845E-13  6.848956E+00  1.336483E+01 -1.793080E+01  8.259919E+00
