    1C
    1USimOps Thermal Analysis: mesh.msh                                 
    1UUSER                                                              
    1UDATE              18.december.2025                                
    1UTIME              14:12:27                                        
    1UHOST                                                              
    1UPGM               CalculiX                                        
    1UVERSION           Version 2.22                             
    1UCOMPILETIME       Sun Aug  4 19:39:24     2024                    
    1UDIR                                                               
    1UDBN                                                               
    1UMAT    1ALUMINUM                                                  
    2C                          1829                                     1
 -1         1 0.00000E+00 0.00000E+00 0.00000E+00
 -1         2 0.00000E+00 0.00000E+00 1.00000E-01
 -1         3 0.00000E+00 1.00000E-02 0.00000E+00
 -1         4 0.00000E+00 1.00000E-02 1.00000E-01
 -1         5 1.00000E-02 0.00000E+00 0.00000E+00
 -1         6 1.00000E-02 0.00000E+00 1.00000E-01
 -1         7 1.00000E-02 1.00000E-02 0.00000E+00
 -1         8 1.00000E-02 1.00000E-02 1.00000E-01
 -1         9 0.00000E+00 0.00000E+00 1.98200E-03
 -1        10 0.00000E+00 0.00000E+00 4.01100E-03
 -1        11 0.00000E+00 0.00000E+00 5.99300E-03
 -1        12 0.00000E+00 0.00000E+00 8.00800E-03
 -1        13 0.00000E+00 0.00000E+00 1.00050E-02
 -1        14 0.00000E+00 0.00000E+00 1.19870E-02
 -1        15 0.00000E+00 0.00000E+00 1.40160E-02
 -1        16 0.00000E+00 0.00000E+00 1.59980E-02
 -1        17 0.00000E+00 0.00000E+00 1.79810E-02
 -1        18 0.00000E+00 0.00000E+00 2.00100E-02
 -1        19 0.00000E+00 0.00000E+00 2.19910E-02
 -1        20 0.00000E+00 0.00000E+00 2.40170E-02
 -1        21 0.00000E+00 0.00000E+00 2.60030E-02
 -1        22 0.00000E+00 0.00000E+00 2.79850E-02
 -1        23 0.00000E+00 0.00000E+00 3.00140E-02
 -1        24 0.00000E+00 0.00000E+00 3.19960E-02
 -1        25 0.00000E+00 0.00000E+00 3.39870E-02
 -1        26 0.00000E+00 0.00000E+00 3.60080E-02
 -1        27 0.00000E+00 0.00000E+00 3.79900E-02
 -1        28 0.00000E+00 0.00000E+00 4.00190E-02
 -1        29 0.00000E+00 0.00000E+00 4.20010E-02
 -1        30 0.00000E+00 0.00000E+00 4.39830E-02
 -1        31 0.00000E+00 0.00000E+00 4.60120E-02
 -1        32 0.00000E+00 0.00000E+00 4.79940E-02
 -1        33 0.00000E+00 0.00000E+00 5.00000E-02
 -1        34 0.00000E+00 0.00000E+00 5.20060E-02
 -1        35 0.00000E+00 0.00000E+00 5.39880E-02
 -1        36 0.00000E+00 0.00000E+00 5.60170E-02
 -1        37 0.00000E+00 0.00000E+00 5.79990E-02
 -1        38 0.00000E+00 0.00000E+00 5.99810E-02
 -1        39 0.00000E+00 0.00000E+00 6.20100E-02
 -1        40 0.00000E+00 0.00000E+00 6.39920E-02
 -1        41 0.00000E+00 0.00000E+00 6.60130E-02
 -1        42 0.00000E+00 0.00000E+00 6.80040E-02
 -1        43 0.00000E+00 0.00000E+00 6.99860E-02
 -1        44 0.00000E+00 0.00000E+00 7.20150E-02
 -1        45 0.00000E+00 0.00000E+00 7.39970E-02
 -1        46 0.00000E+00 0.00000E+00 7.59830E-02
 -1        47 0.00000E+00 0.00000E+00 7.80090E-02
 -1        48 0.00000E+00 0.00000E+00 7.99900E-02
 -1        49 0.00000E+00 0.00000E+00 8.20190E-02
 -1        50 0.00000E+00 0.00000E+00 8.40020E-02
 -1        51 0.00000E+00 0.00000E+00 8.59840E-02
 -1        52 0.00000E+00 0.00000E+00 8.80130E-02
 -1        53 0.00000E+00 0.00000E+00 8.99950E-02
 -1        54 0.00000E+00 0.00000E+00 9.19920E-02
 -1        55 0.00000E+00 0.00000E+00 9.40070E-02
 -1        56 0.00000E+00 0.00000E+00 9.59890E-02
 -1        57 0.00000E+00 0.00000E+00 9.80180E-02
 -1        58 0.00000E+00 2.00000E-03 0.00000E+00
 -1        59 0.00000E+00 4.00000E-03 0.00000E+00
 -1        60 0.00000E+00 6.00000E-03 0.00000E+00
 -1        61 0.00000E+00 8.00000E-03 0.00000E+00
 -1        62 0.00000E+00 1.00000E-02 1.98100E-03
 -1        63 0.00000E+00 1.00000E-02 4.01000E-03
 -1        64 0.00000E+00 1.00000E-02 5.99200E-03
 -1        65 0.00000E+00 1.00000E-02 8.00600E-03
 -1        66 0.00000E+00 1.00000E-02 1.00020E-02
 -1        67 0.00000E+00 1.00000E-02 1.19840E-02
 -1        68 0.00000E+00 1.00000E-02 1.40130E-02
 -1        69 0.00000E+00 1.00000E-02 1.59940E-02
 -1        70 0.00000E+00 1.00000E-02 1.79770E-02
 -1        71 0.00000E+00 1.00000E-02 2.00050E-02
 -1        72 0.00000E+00 1.00000E-02 2.19860E-02
 -1        73 0.00000E+00 1.00000E-02 2.40110E-02
 -1        74 0.00000E+00 1.00000E-02 2.59970E-02
 -1        75 0.00000E+00 1.00000E-02 2.79780E-02
 -1        76 0.00000E+00 1.00000E-02 3.00070E-02
 -1        77 0.00000E+00 1.00000E-02 3.19890E-02
 -1        78 0.00000E+00 1.00000E-02 3.39780E-02
 -1        79 0.00000E+00 1.00000E-02 3.59990E-02
 -1        80 0.00000E+00 1.00000E-02 3.79810E-02
 -1        81 0.00000E+00 1.00000E-02 4.00150E-02
 -1        82 0.00000E+00 1.00000E-02 4.19970E-02
 -1        83 0.00000E+00 1.00000E-02 4.39780E-02
 -1        84 0.00000E+00 1.00000E-02 4.60130E-02
 -1        85 0.00000E+00 1.00000E-02 4.79950E-02
 -1        86 0.00000E+00 1.00000E-02 5.00000E-02
 -1        87 0.00000E+00 1.00000E-02 5.20050E-02
 -1        88 0.00000E+00 1.00000E-02 5.39870E-02
 -1        89 0.00000E+00 1.00000E-02 5.60220E-02
 -1        90 0.00000E+00 1.00000E-02 5.80030E-02
 -1        91 0.00000E+00 1.00000E-02 5.99850E-02
 -1        92 0.00000E+00 1.00000E-02 6.20190E-02
 -1        93 0.00000E+00 1.00000E-02 6.40010E-02
 -1        94 0.00000E+00 1.00000E-02 6.60220E-02
 -1        95 0.00000E+00 1.00000E-02 6.80110E-02
 -1        96 0.00000E+00 1.00000E-02 6.99930E-02
 -1        97 0.00000E+00 1.00000E-02 7.20220E-02
 -1        98 0.00000E+00 1.00000E-02 7.40030E-02
 -1        99 0.00000E+00 1.00000E-02 7.59890E-02
 -1       100 0.00000E+00 1.00000E-02 7.80140E-02
 -1       101 0.00000E+00 1.00000E-02 7.99950E-02
 -1       102 0.00000E+00 1.00000E-02 8.20230E-02
 -1       103 0.00000E+00 1.00000E-02 8.40060E-02
 -1       104 0.00000E+00 1.00000E-02 8.59870E-02
 -1       105 0.00000E+00 1.00000E-02 8.80160E-02
 -1       106 0.00000E+00 1.00000E-02 8.99980E-02
 -1       107 0.00000E+00 1.00000E-02 9.19940E-02
 -1       108 0.00000E+00 1.00000E-02 9.40080E-02
 -1       109 0.00000E+00 1.00000E-02 9.59900E-02
 -1       110 0.00000E+00 1.00000E-02 9.80190E-02
 -1       111 0.00000E+00 2.00000E-03 1.00000E-01
 -1       112 0.00000E+00 4.00000E-03 1.00000E-01
 -1       113 0.00000E+00 6.00000E-03 1.00000E-01
 -1       114 0.00000E+00 8.00000E-03 1.00000E-01
 -1       115 1.00000E-02 0.00000E+00 1.98200E-03
 -1       116 1.00000E-02 0.00000E+00 4.01100E-03
 -1       117 1.00000E-02 0.00000E+00 5.99300E-03
 -1       118 1.00000E-02 0.00000E+00 8.00800E-03
 -1       119 1.00000E-02 0.00000E+00 1.00050E-02
 -1       120 1.00000E-02 0.00000E+00 1.19870E-02
 -1       121 1.00000E-02 0.00000E+00 1.40160E-02
 -1       122 1.00000E-02 0.00000E+00 1.59980E-02
 -1       123 1.00000E-02 0.00000E+00 1.79810E-02
 -1       124 1.00000E-02 0.00000E+00 2.00100E-02
 -1       125 1.00000E-02 0.00000E+00 2.19910E-02
 -1       126 1.00000E-02 0.00000E+00 2.40170E-02
 -1       127 1.00000E-02 0.00000E+00 2.60030E-02
 -1       128 1.00000E-02 0.00000E+00 2.79850E-02
 -1       129 1.00000E-02 0.00000E+00 3.00140E-02
 -1       130 1.00000E-02 0.00000E+00 3.19960E-02
 -1       131 1.00000E-02 0.00000E+00 3.39870E-02
 -1       132 1.00000E-02 0.00000E+00 3.60080E-02
 -1       133 1.00000E-02 0.00000E+00 3.79900E-02
 -1       134 1.00000E-02 0.00000E+00 4.00190E-02
 -1       135 1.00000E-02 0.00000E+00 4.20010E-02
 -1       136 1.00000E-02 0.00000E+00 4.39830E-02
 -1       137 1.00000E-02 0.00000E+00 4.60120E-02
 -1       138 1.00000E-02 0.00000E+00 4.79940E-02
 -1       139 1.00000E-02 0.00000E+00 5.00000E-02
 -1       140 1.00000E-02 0.00000E+00 5.20060E-02
 -1       141 1.00000E-02 0.00000E+00 5.39880E-02
 -1       142 1.00000E-02 0.00000E+00 5.60170E-02
 -1       143 1.00000E-02 0.00000E+00 5.79990E-02
 -1       144 1.00000E-02 0.00000E+00 5.99810E-02
 -1       145 1.00000E-02 0.00000E+00 6.20100E-02
 -1       146 1.00000E-02 0.00000E+00 6.39920E-02
 -1       147 1.00000E-02 0.00000E+00 6.60130E-02
 -1       148 1.00000E-02 0.00000E+00 6.80040E-02
 -1       149 1.00000E-02 0.00000E+00 6.99860E-02
 -1       150 1.00000E-02 0.00000E+00 7.20150E-02
 -1       151 1.00000E-02 0.00000E+00 7.39970E-02
 -1       152 1.00000E-02 0.00000E+00 7.59830E-02
 -1       153 1.00000E-02 0.00000E+00 7.80090E-02
 -1       154 1.00000E-02 0.00000E+00 7.99900E-02
 -1       155 1.00000E-02 0.00000E+00 8.20190E-02
 -1       156 1.00000E-02 0.00000E+00 8.40020E-02
 -1       157 1.00000E-02 0.00000E+00 8.59840E-02
 -1       158 1.00000E-02 0.00000E+00 8.80130E-02
 -1       159 1.00000E-02 0.00000E+00 8.99950E-02
 -1       160 1.00000E-02 0.00000E+00 9.19920E-02
 -1       161 1.00000E-02 0.00000E+00 9.40070E-02
 -1       162 1.00000E-02 0.00000E+00 9.59890E-02
 -1       163 1.00000E-02 0.00000E+00 9.80180E-02
 -1       164 1.00000E-02 2.00000E-03 0.00000E+00
 -1       165 1.00000E-02 4.00000E-03 0.00000E+00
 -1       166 1.00000E-02 6.00000E-03 0.00000E+00
 -1       167 1.00000E-02 8.00000E-03 0.00000E+00
 -1       168 1.00000E-02 1.00000E-02 1.98200E-03
 -1       169 1.00000E-02 1.00000E-02 4.01100E-03
 -1       170 1.00000E-02 1.00000E-02 5.99300E-03
 -1       171 1.00000E-02 1.00000E-02 8.00800E-03
 -1       172 1.00000E-02 1.00000E-02 1.00050E-02
 -1       173 1.00000E-02 1.00000E-02 1.19870E-02
 -1       174 1.00000E-02 1.00000E-02 1.40160E-02
 -1       175 1.00000E-02 1.00000E-02 1.59980E-02
 -1       176 1.00000E-02 1.00000E-02 1.79810E-02
 -1       177 1.00000E-02 1.00000E-02 2.00100E-02
 -1       178 1.00000E-02 1.00000E-02 2.19910E-02
 -1       179 1.00000E-02 1.00000E-02 2.40170E-02
 -1       180 1.00000E-02 1.00000E-02 2.60030E-02
 -1       181 1.00000E-02 1.00000E-02 2.79850E-02
 -1       182 1.00000E-02 1.00000E-02 3.00140E-02
 -1       183 1.00000E-02 1.00000E-02 3.19960E-02
 -1       184 1.00000E-02 1.00000E-02 3.39870E-02
 -1       185 1.00000E-02 1.00000E-02 3.60080E-02
 -1       186 1.00000E-02 1.00000E-02 3.79900E-02
 -1       187 1.00000E-02 1.00000E-02 4.00190E-02
 -1       188 1.00000E-02 1.00000E-02 4.20010E-02
 -1       189 1.00000E-02 1.00000E-02 4.39830E-02
 -1       190 1.00000E-02 1.00000E-02 4.60120E-02
 -1       191 1.00000E-02 1.00000E-02 4.79940E-02
 -1       192 1.00000E-02 1.00000E-02 5.00000E-02
 -1       193 1.00000E-02 1.00000E-02 5.20060E-02
 -1       194 1.00000E-02 1.00000E-02 5.39880E-02
 -1       195 1.00000E-02 1.00000E-02 5.60170E-02
 -1       196 1.00000E-02 1.00000E-02 5.79990E-02
 -1       197 1.00000E-02 1.00000E-02 5.99810E-02
 -1       198 1.00000E-02 1.00000E-02 6.20100E-02
 -1       199 1.00000E-02 1.00000E-02 6.39920E-02
 -1       200 1.00000E-02 1.00000E-02 6.60130E-02
 -1       201 1.00000E-02 1.00000E-02 6.80040E-02
 -1       202 1.00000E-02 1.00000E-02 6.99860E-02
 -1       203 1.00000E-02 1.00000E-02 7.20150E-02
 -1       204 1.00000E-02 1.00000E-02 7.39970E-02
 -1       205 1.00000E-02 1.00000E-02 7.59830E-02
 -1       206 1.00000E-02 1.00000E-02 7.80090E-02
 -1       207 1.00000E-02 1.00000E-02 7.99900E-02
 -1       208 1.00000E-02 1.00000E-02 8.20190E-02
 -1       209 1.00000E-02 1.00000E-02 8.40020E-02
 -1       210 1.00000E-02 1.00000E-02 8.59840E-02
 -1       211 1.00000E-02 1.00000E-02 8.80130E-02
 -1       212 1.00000E-02 1.00000E-02 8.99950E-02
 -1       213 1.00000E-02 1.00000E-02 9.19920E-02
 -1       214 1.00000E-02 1.00000E-02 9.40070E-02
 -1       215 1.00000E-02 1.00000E-02 9.59890E-02
 -1       216 1.00000E-02 1.00000E-02 9.80180E-02
 -1       217 1.00000E-02 2.00000E-03 1.00000E-01
 -1       218 1.00000E-02 4.00000E-03 1.00000E-01
 -1       219 1.00000E-02 6.00000E-03 1.00000E-01
 -1       220 1.00000E-02 8.00000E-03 1.00000E-01
 -1       221 2.00000E-03 0.00000E+00 0.00000E+00
 -1       222 4.00000E-03 0.00000E+00 0.00000E+00
 -1       223 6.00000E-03 0.00000E+00 0.00000E+00
 -1       224 8.00000E-03 0.00000E+00 0.00000E+00
 -1       225 2.00000E-03 0.00000E+00 1.00000E-01
 -1       226 4.00000E-03 0.00000E+00 1.00000E-01
 -1       227 6.00000E-03 0.00000E+00 1.00000E-01
 -1       228 8.00000E-03 0.00000E+00 1.00000E-01
 -1       229 2.00000E-03 1.00000E-02 0.00000E+00
 -1       230 4.00000E-03 1.00000E-02 0.00000E+00
 -1       231 6.00000E-03 1.00000E-02 0.00000E+00
 -1       232 8.00000E-03 1.00000E-02 0.00000E+00
 -1       233 2.00000E-03 1.00000E-02 1.00000E-01
 -1       234 4.00000E-03 1.00000E-02 1.00000E-01
 -1       235 6.00000E-03 1.00000E-02 1.00000E-01
 -1       236 8.00000E-03 1.00000E-02 1.00000E-01
 -1       237 0.00000E+00 8.28400E-03 5.50040E-02
 -1       238 0.00000E+00 8.28400E-03 4.49960E-02
 -1       239 0.00000E+00 8.28400E-03 8.70020E-02
 -1       240 0.00000E+00 8.05700E-03 1.30540E-02
 -1       241 0.00000E+00 8.28400E-03 7.10070E-02
 -1       242 0.00000E+00 8.20100E-03 2.90310E-02
 -1       243 0.00000E+00 8.27200E-03 3.90150E-02
 -1       244 0.00000E+00 8.28400E-03 6.10020E-02
 -1       245 0.00000E+00 1.67800E-03 8.10370E-02
 -1       246 0.00000E+00 1.63000E-03 1.90790E-02
 -1       247 0.00000E+00 8.12800E-03 2.30710E-02
 -1       248 0.00000E+00 8.27300E-03 7.70050E-02
 -1       249 0.00000E+00 8.35900E-03 9.49120E-02
 -1       250 0.00000E+00 8.37100E-03 4.74700E-03
 -1       251 0.00000E+00 1.66000E-03 3.50120E-02
 -1       252 0.00000E+00 1.66200E-03 6.50120E-02
 -1       253 0.00000E+00 1.72000E-03 9.09990E-02
 -1       254 0.00000E+00 1.57800E-03 9.08100E-03
 -1       255 0.00000E+00 1.72700E-03 4.89970E-02
 -1       256 0.00000E+00 1.70400E-03 6.89940E-02
 -1       257 0.00000E+00 1.65900E-03 3.10550E-02
 -1       258 0.00000E+00 1.64000E-03 4.09960E-02
 -1       259 0.00000E+00 1.71600E-03 5.89900E-02
 -1       260 0.00000E+00 1.47800E-03 1.50300E-02
 -1       261 0.00000E+00 1.71700E-03 8.49930E-02
 -1       262 0.00000E+00 1.68700E-03 5.29790E-02
 -1       263 0.00000E+00 1.70100E-03 7.30040E-02
 -1       264 0.00000E+00 1.64600E-03 2.70600E-02
 -1       265 0.00000E+00 8.32000E-03 8.30000E-02
 -1       266 0.00000E+00 8.08000E-03 1.70550E-02
 -1       267 0.00000E+00 8.22200E-03 3.30110E-02
 -1       268 0.00000E+00 8.27900E-03 6.70080E-02
 -1       269 0.00000E+00 8.31800E-03 5.10300E-02
 -1       270 0.00000E+00 1.69700E-03 4.49970E-02
 -1       271 0.00000E+00 1.71700E-03 9.49970E-02
 -1       272 0.00000E+00 1.54400E-03 5.06100E-03
 -1       273 0.00000E+00 1.64000E-03 2.30680E-02
 -1       274 0.00000E+00 1.67100E-03 7.70280E-02
 -1       275 0.00000E+00 8.28600E-03 9.09710E-02
 -1       276 0.00000E+00 7.83700E-03 8.83000E-03
 -1       277 0.00000E+00 5.09300E-03 9.83670E-02
 -1       278 0.00000E+00 5.24800E-03 2.03800E-03
 -1       279 0.00000E+00 8.27800E-03 4.30050E-02
 -1       280 0.00000E+00 6.57400E-03 4.39950E-02
 -1       281 0.00000E+00 6.65000E-03 4.60010E-02
 -1       282 0.00000E+00 6.54100E-03 4.20370E-02
 -1       283 0.00000E+00 4.89800E-03 4.29990E-02
 -1       284 0.00000E+00 4.86300E-03 4.10130E-02
 -1       285 0.00000E+00 6.55300E-03 4.00280E-02
 -1       286 0.00000E+00 4.83600E-03 3.90220E-02
 -1       287 0.00000E+00 8.28000E-03 5.70080E-02
 -1       288 0.00000E+00 6.57600E-03 5.59890E-02
 -1       289 0.00000E+00 6.59900E-03 5.79700E-02
 -1       290 0.00000E+00 6.57400E-03 5.40360E-02
 -1       291 0.00000E+00 4.89400E-03 5.49990E-02
 -1       292 0.00000E+00 4.99200E-03 5.30120E-02
 -1       293 0.00000E+00 8.28200E-03 6.30020E-02
 -1       294 0.00000E+00 6.55900E-03 6.19940E-02
 -1       295 0.00000E+00 6.55900E-03 6.39910E-02
 -1       296 0.00000E+00 4.87200E-03 6.29900E-02
 -1       297 0.00000E+00 4.85300E-03 6.10080E-02
 -1       298 0.00000E+00 4.85200E-03 6.49750E-02
 -1       299 0.00000E+00 3.28200E-03 6.19740E-02
 -1       300 0.00000E+00 8.26700E-03 3.70130E-02
 -1       301 0.00000E+00 6.54300E-03 3.80320E-02
 -1       302 0.00000E+00 6.53500E-03 3.60380E-02
 -1       303 0.00000E+00 4.84400E-03 3.70570E-02
 -1       304 0.00000E+00 4.78700E-03 3.50820E-02
 -1       305 0.00000E+00 3.14900E-03 3.80360E-02
 -1       306 0.00000E+00 6.49300E-03 3.40480E-02
 -1       307 0.00000E+00 4.76600E-03 3.30960E-02
 -1       308 0.00000E+00 6.45900E-03 3.20560E-02
 -1       309 0.00000E+00 4.70000E-03 3.11130E-02
 -1       310 0.00000E+00 6.42400E-03 3.00700E-02
 -1       311 0.00000E+00 4.65600E-03 2.91300E-02
 -1       312 0.00000E+00 6.41300E-03 2.80880E-02
 -1       313 0.00000E+00 4.64200E-03 2.71470E-02
 -1       314 0.00000E+00 6.36100E-03 2.61100E-02
 -1       315 0.00000E+00 4.60100E-03 2.51650E-02
 -1       316 0.00000E+00 6.30500E-03 2.41290E-02
 -1       317 0.00000E+00 4.52200E-03 2.31840E-02
 -1       318 0.00000E+00 6.31500E-03 2.21340E-02
 -1       319 0.00000E+00 4.51700E-03 2.11990E-02
 -1       320 0.00000E+00 6.25700E-03 2.01550E-02
 -1       321 0.00000E+00 4.43200E-03 1.92190E-02
 -1       322 0.00000E+00 6.18400E-03 1.81690E-02
 -1       323 0.00000E+00 4.38800E-03 1.72370E-02
 -1       324 0.00000E+00 6.15700E-03 1.61560E-02
 -1       325 0.00000E+00 4.47400E-03 1.51750E-02
 -1       326 0.00000E+00 6.03700E-03 1.42260E-02
 -1       327 0.00000E+00 4.35800E-03 1.31900E-02
 -1       328 0.00000E+00 6.08400E-03 1.21700E-02
 -1       329 0.00000E+00 4.37000E-03 1.12620E-02
 -1       330 0.00000E+00 5.94800E-03 1.02590E-02
 -1       331 0.00000E+00 4.20600E-03 9.30500E-03
 -1       332 0.00000E+00 5.90400E-03 8.27300E-03
 -1       333 0.00000E+00 4.16200E-03 7.31800E-03
 -1       334 0.00000E+00 5.85900E-03 6.28700E-03
 -1       335 0.00000E+00 2.90100E-03 1.20760E-02
 -1       336 0.00000E+00 4.29600E-03 5.28100E-03
 -1       337 0.00000E+00 5.61200E-03 4.26300E-03
 -1       338 0.00000E+00 8.05800E-03 1.90890E-02
 -1       339 0.00000E+00 8.12800E-03 2.50670E-02
 -1       340 0.00000E+00 7.98800E-03 1.10500E-02
 -1       341 0.00000E+00 8.01500E-03 1.50570E-02
 -1       342 0.00000E+00 8.25300E-03 3.50150E-02
 -1       343 0.00000E+00 8.28000E-03 7.30050E-02
 -1       344 0.00000E+00 6.56800E-03 7.20100E-02
 -1       345 0.00000E+00 6.52900E-03 7.40230E-02
 -1       346 0.00000E+00 6.56300E-03 7.00220E-02
 -1       347 0.00000E+00 4.84700E-03 7.10250E-02
 -1       348 0.00000E+00 4.87600E-03 6.90170E-02
 -1       349 0.00000E+00 1.62800E-03 2.90730E-02
 -1       350 0.00000E+00 1.69400E-03 7.09840E-02
 -1       351 0.00000E+00 1.68100E-03 5.49870E-02
 -1       352 0.00000E+00 1.68500E-03 5.69910E-02
 -1       353 0.00000E+00 3.32800E-03 5.79410E-02
 -1       354 0.00000E+00 1.66700E-03 9.69760E-02
 -1       355 0.00000E+00 3.27100E-03 9.60300E-02
 -1       356 0.00000E+00 3.40700E-03 9.40120E-02
 -1       357 0.00000E+00 5.14200E-03 9.51570E-02
 -1       358 0.00000E+00 5.08000E-03 9.30110E-02
 -1       359 0.00000E+00 1.48000E-03 3.03200E-03
 -1       360 0.00000E+00 1.71600E-03 8.69790E-02
 -1       361 0.00000E+00 3.40500E-03 8.59850E-02
 -1       362 0.00000E+00 3.43300E-03 8.79670E-02
 -1       363 0.00000E+00 3.41500E-03 8.40240E-02
 -1       364 0.00000E+00 5.07800E-03 8.50150E-02
 -1       365 0.00000E+00 5.00400E-03 8.30230E-02
 -1       366 0.00000E+00 8.39100E-03 2.89500E-03
 -1       367 0.00000E+00 8.09700E-03 9.68480E-02
 -1       368 0.00000E+00 8.29600E-03 8.10080E-02
 -1       369 0.00000E+00 8.26700E-03 7.90290E-02
 -1       370 0.00000E+00 6.55100E-03 7.79990E-02
 -1       371 0.00000E+00 6.56800E-03 8.00010E-02
 -1       372 0.00000E+00 4.83500E-03 7.90330E-02
 -1       373 0.00000E+00 4.80700E-03 7.70450E-02
 -1       374 0.00000E+00 1.67400E-03 7.90230E-02
 -1       375 0.00000E+00 1.60300E-03 2.11020E-02
 -1       376 0.00000E+00 4.90800E-03 8.10240E-02
 -1       377 0.00000E+00 6.51800E-03 7.60190E-02
 -1       378 0.00000E+00 4.83200E-03 7.50440E-02
 -1       379 0.00000E+00 4.85200E-03 7.30260E-02
 -1       380 0.00000E+00 6.55900E-03 6.59950E-02
 -1       381 0.00000E+00 4.86600E-03 6.69810E-02
 -1       382 0.00000E+00 8.21800E-03 3.10270E-02
 -1       383 0.00000E+00 1.72300E-03 4.69920E-02
 -1       384 0.00000E+00 3.43800E-03 4.80120E-02
 -1       385 0.00000E+00 3.43900E-03 4.99720E-02
 -1       386 0.00000E+00 5.15900E-03 4.89950E-02
 -1       387 0.00000E+00 5.09200E-03 5.09950E-02
 -1       388 0.00000E+00 3.36000E-03 4.60060E-02
 -1       389 0.00000E+00 8.30700E-03 4.90050E-02
 -1       390 0.00000E+00 8.27400E-03 8.89960E-02
 -1       391 0.00000E+00 6.55200E-03 8.99980E-02
 -1       392 0.00000E+00 6.61500E-03 8.80150E-02
 -1       393 0.00000E+00 1.53900E-03 7.13800E-03
 -1       394 0.00000E+00 6.57100E-03 6.80040E-02
 -1       395 0.00000E+00 8.32800E-03 6.68400E-03
 -1       396 0.00000E+00 8.33200E-03 9.29590E-02
 -1       397 0.00000E+00 1.66900E-03 4.30030E-02
 -1       398 0.00000E+00 8.32400E-03 8.50240E-02
 -1       399 0.00000E+00 1.56400E-03 1.71030E-02
 -1       400 0.00000E+00 1.61700E-03 2.50900E-02
 -1       401 0.00000E+00 1.64800E-03 7.50150E-02
 -1       402 0.00000E+00 1.64400E-03 3.30510E-02
 -1       403 0.00000E+00 1.67900E-03 6.69970E-02
 -1       404 0.00000E+00 8.27400E-03 4.10160E-02
 -1       405 0.00000E+00 8.29900E-03 5.30380E-02
 -1       406 0.00000E+00 8.28300E-03 5.89890E-02
 -1       407 0.00000E+00 1.71800E-03 8.89910E-02
 -1       408 0.00000E+00 3.42400E-03 8.99930E-02
 -1       409 0.00000E+00 8.26900E-03 7.50010E-02
 -1       410 0.00000E+00 8.28000E-03 6.50030E-02
 -1       411 0.00000E+00 1.70700E-03 5.09690E-02
 -1       412 0.00000E+00 3.38800E-03 9.20070E-02
 -1       413 0.00000E+00 1.69400E-03 8.30390E-02
 -1       414 0.00000E+00 8.32800E-03 4.70000E-02
 -1       415 0.00000E+00 1.71100E-03 9.30090E-02
 -1       416 0.00000E+00 8.28300E-03 6.90070E-02
 -1       417 0.00000E+00 6.59700E-03 5.99870E-02
 -1       418 0.00000E+00 8.21200E-03 2.70410E-02
 -1       419 0.00000E+00 8.17300E-03 2.10660E-02
 -1       420 0.00000E+00 7.03900E-03 1.63900E-03
 -1       421 0.00000E+00 3.15400E-03 9.81120E-02
 -1       422 0.00000E+00 4.20500E-03 3.45200E-03
 -1       423 0.00000E+00 3.04500E-03 1.90600E-03
 -1       424 0.00000E+00 6.94000E-03 9.83810E-02
 -1       425 0.00000E+00 6.12000E-03 9.68530E-02
 -1       426 0.00000E+00 3.32300E-03 5.99310E-02
 -1       427 0.00000E+00 6.66700E-03 8.60060E-02
 -1       428 0.00000E+00 1.65000E-03 6.08560E-02
 -1       429 0.00000E+00 1.60100E-03 3.70220E-02
 -1       430 0.00000E+00 3.36900E-03 5.19940E-02
 -1       431 0.00000E+00 1.65600E-03 6.30940E-02
 -1       432 0.00000E+00 6.64900E-03 9.19560E-02
 -1       433 0.00000E+00 6.66900E-03 5.20200E-02
 -1       434 0.00000E+00 3.28800E-03 6.80020E-02
 -1       435 0.00000E+00 4.94500E-03 5.69680E-02
 -1       436 0.00000E+00 6.63600E-03 8.20100E-02
 -1       437 0.00000E+00 5.04500E-03 4.69820E-02
 -1       438 0.00000E+00 6.68500E-03 8.40100E-02
 -1       439 0.00000E+00 6.74000E-03 9.39120E-02
 -1       440 0.00000E+00 3.26600E-03 7.20030E-02
 -1       441 0.00000E+00 3.32800E-03 8.20280E-02
 -1       442 0.00000E+00 4.96700E-03 4.50000E-02
 -1       443 0.00000E+00 4.99000E-03 9.10070E-02
 -1       444 0.00000E+00 3.30700E-03 4.40010E-02
 -1       445 0.00000E+00 6.72900E-03 4.79930E-02
 -1       446 0.00000E+00 4.98300E-03 8.69760E-02
 -1       447 0.00000E+00 3.27900E-03 7.00040E-02
 -1       448 0.00000E+00 3.31500E-03 5.39870E-02
 -1       449 0.00000E+00 3.29400E-03 6.39770E-02
 -1       450 0.00000E+00 3.28500E-03 8.00340E-02
 -1       451 0.00000E+00 4.98200E-03 8.89810E-02
 -1       452 0.00000E+00 3.28000E-03 6.59760E-02
 -1       453 0.00000E+00 3.30800E-03 5.59790E-02
 -1       454 0.00000E+00 4.94100E-03 5.89680E-02
 -1       455 0.00000E+00 3.25800E-03 7.80410E-02
 -1       456 0.00000E+00 6.72700E-03 5.00080E-02
 -1       457 0.00000E+00 3.25000E-03 4.20000E-02
 -1       458 0.00000E+00 3.19700E-03 3.99820E-02
 -1       459 0.00000E+00 1.57200E-03 3.90060E-02
 -1       460 0.00000E+00 3.26300E-03 7.40300E-02
 -1       461 0.00000E+00 3.24600E-03 7.60340E-02
 -1       462 0.00000E+00 3.26300E-03 3.60740E-02
 -1       463 0.00000E+00 1.45200E-03 1.10790E-02
 -1       464 0.00000E+00 3.25400E-03 3.40980E-02
 -1       465 0.00000E+00 3.23700E-03 3.21150E-02
 -1       466 0.00000E+00 3.21100E-03 3.01310E-02
 -1       467 0.00000E+00 3.18100E-03 2.81360E-02
 -1       468 0.00000E+00 3.16600E-03 2.61500E-02
 -1       469 0.00000E+00 3.18200E-03 2.41900E-02
 -1       470 0.00000E+00 3.15000E-03 2.22010E-02
 -1       471 0.00000E+00 3.08000E-03 2.01760E-02
 -1       472 0.00000E+00 3.06800E-03 1.82030E-02
 -1       473 0.00000E+00 2.91800E-03 1.41250E-02
 -1       474 0.00000E+00 3.02500E-03 1.61820E-02
 -1       475 0.00000E+00 1.47900E-03 9.85250E-02
 -1       476 0.00000E+00 8.52100E-03 1.47400E-03
 -1       477 0.00000E+00 1.46600E-03 1.46100E-03
 -1       478 0.00000E+00 8.53400E-03 9.85390E-02
 -1       479 0.00000E+00 1.45800E-03 1.30520E-02
 -1       480 0.00000E+00 3.01600E-03 1.02760E-02
 -1       481 0.00000E+00 2.96400E-03 8.27100E-03
 -1       482 0.00000E+00 6.82800E-03 3.25300E-03
 -1       483 0.00000E+00 6.87900E-03 9.54790E-02
 -1       484 0.00000E+00 2.88000E-03 6.17800E-03
 -1       485 0.00000E+00 2.77700E-03 4.00000E-03
 -1       486 0.00000E+00 4.55600E-03 9.69040E-02
 -1       487 0.00000E+00 6.87400E-03 5.27200E-03
 -1       488 0.00000E+00 6.90400E-03 7.20800E-03
 -1       489 1.00000E-02 8.28300E-03 4.50050E-02
 -1       490 1.00000E-02 8.28400E-03 5.50020E-02
 -1       491 1.00000E-02 1.71600E-03 7.10000E-02
 -1       492 1.00000E-02 1.71600E-03 2.90000E-02
 -1       493 1.00000E-02 8.29500E-03 3.90050E-02
 -1       494 1.00000E-02 1.71600E-03 6.09960E-02
 -1       495 1.00000E-02 1.71000E-03 8.70150E-02
 -1       496 1.00000E-02 1.68800E-03 1.29760E-02
 -1       497 1.00000E-02 8.31000E-03 8.10210E-02
 -1       498 1.00000E-02 8.32200E-03 1.89630E-02
 -1       499 1.00000E-02 1.72300E-03 2.29940E-02
 -1       500 1.00000E-02 1.72500E-03 7.69910E-02
 -1       501 1.00000E-02 1.64000E-03 9.49150E-02
 -1       502 1.00000E-02 1.72000E-03 4.99600E-03
 -1       503 1.00000E-02 1.73400E-03 3.50030E-02
 -1       504 1.00000E-02 8.32600E-03 6.49710E-02
 -1       505 1.00000E-02 8.27700E-03 9.09940E-02
 -1       506 1.00000E-02 1.72300E-03 9.00600E-03
 -1       507 1.00000E-02 1.64600E-03 4.90040E-02
 -1       508 1.00000E-02 1.71600E-03 5.29970E-02
 -1       509 1.00000E-02 1.71600E-03 4.29920E-02
 -1       510 1.00000E-02 1.71900E-03 5.69930E-02
 -1       511 1.00000E-02 8.28400E-03 6.89950E-02
 -1       512 1.00000E-02 8.34000E-03 3.09950E-02
 -1       513 1.00000E-02 8.28400E-03 2.69940E-02
 -1       514 1.00000E-02 8.29000E-03 7.30190E-02
 -1       515 1.00000E-02 8.28000E-03 8.50000E-02
 -1       516 1.00000E-02 8.28400E-03 1.50070E-02
 -1       517 1.00000E-02 8.28000E-03 5.89940E-02
 -1       518 1.00000E-02 1.68400E-03 8.29820E-02
 -1       519 1.00000E-02 1.68000E-03 1.70040E-02
 -1       520 1.00000E-02 1.72300E-03 6.70000E-02
 -1       521 1.00000E-02 8.31900E-03 1.10280E-02
 -1       522 1.00000E-02 8.27700E-03 7.00100E-03
 -1       523 1.00000E-02 8.31800E-03 5.09810E-02
 -1       524 1.00000E-02 1.71600E-03 3.90040E-02
 -1       525 1.00000E-02 8.28200E-03 9.50050E-02
 -1       526 1.00000E-02 8.28200E-03 2.30040E-02
 -1       527 1.00000E-02 8.31000E-03 7.69700E-02
 -1       528 1.00000E-02 8.32800E-03 3.50340E-02
 -1       529 1.00000E-02 1.71400E-03 9.09690E-02
 -1       530 1.00000E-02 4.90400E-03 9.83690E-02
 -1       531 1.00000E-02 5.09500E-03 1.63000E-03
 -1       532 1.00000E-02 8.08100E-03 3.13600E-03
 -1       533 1.00000E-02 8.27600E-03 4.30050E-02
 -1       534 1.00000E-02 6.58900E-03 4.40180E-02
 -1       535 1.00000E-02 6.57500E-03 4.60020E-02
 -1       536 1.00000E-02 6.65500E-03 4.19880E-02
 -1       537 1.00000E-02 4.92300E-03 4.49940E-02
 -1       538 1.00000E-02 4.88700E-03 4.69820E-02
 -1       539 1.00000E-02 6.59300E-03 4.79730E-02
 -1       540 1.00000E-02 4.97600E-03 4.89730E-02
 -1       541 1.00000E-02 3.23200E-03 4.59610E-02
 -1       542 1.00000E-02 1.72200E-03 3.09900E-02
 -1       543 1.00000E-02 3.45500E-03 2.99960E-02
 -1       544 1.00000E-02 3.43100E-03 2.79990E-02
 -1       545 1.00000E-02 3.48700E-03 3.20190E-02
 -1       546 1.00000E-02 5.11900E-03 2.89980E-02
 -1       547 1.00000E-02 5.10100E-03 2.70020E-02
 -1       548 1.00000E-02 3.41900E-03 2.60030E-02
 -1       549 1.00000E-02 5.12100E-03 2.50100E-02
 -1       550 1.00000E-02 1.72200E-03 7.29910E-02
 -1       551 1.00000E-02 3.41100E-03 7.19810E-02
 -1       552 1.00000E-02 3.43800E-03 7.39640E-02
 -1       553 1.00000E-02 3.43400E-03 6.99780E-02
 -1       554 1.00000E-02 5.05400E-03 7.10030E-02
 -1       555 1.00000E-02 5.09800E-03 6.89690E-02
 -1       556 1.00000E-02 1.72700E-03 6.29830E-02
 -1       557 1.00000E-02 3.42900E-03 6.19970E-02
 -1       558 1.00000E-02 3.45200E-03 6.39630E-02
 -1       559 1.00000E-02 3.39700E-03 6.00110E-02
 -1       560 1.00000E-02 5.14800E-03 6.29590E-02
 -1       561 1.00000E-02 5.18400E-03 6.49370E-02
 -1       562 1.00000E-02 3.46100E-03 6.59520E-02
 -1       563 1.00000E-02 5.15200E-03 6.69360E-02
 -1       564 1.00000E-02 1.71700E-03 5.49960E-02
 -1       565 1.00000E-02 3.43300E-03 5.39880E-02
 -1       566 1.00000E-02 3.42300E-03 5.20220E-02
 -1       567 1.00000E-02 5.13700E-03 5.29990E-02
 -1       568 1.00000E-02 5.09100E-03 5.49720E-02
 -1       569 1.00000E-02 5.04300E-03 5.09980E-02
 -1       570 1.00000E-02 8.31900E-03 9.69940E-02
 -1       571 1.00000E-02 6.72300E-03 9.60400E-02
 -1       572 1.00000E-02 6.58600E-03 9.40220E-02
 -1       573 1.00000E-02 4.85300E-03 9.51710E-02
 -1       574 1.00000E-02 4.89100E-03 9.30240E-02
 -1       575 1.00000E-02 1.90300E-03 9.68500E-02
 -1       576 1.00000E-02 1.68100E-03 3.00600E-03
 -1       577 1.00000E-02 3.27800E-03 3.96000E-03
 -1       578 1.00000E-02 3.41600E-03 5.98600E-03
 -1       579 1.00000E-02 5.14500E-03 4.83800E-03
 -1       580 1.00000E-02 5.10400E-03 6.97300E-03
 -1       581 1.00000E-02 8.34300E-03 2.89890E-02
 -1       582 1.00000E-02 8.32100E-03 7.10200E-02