/*--------------------------------*- C++ -*----------------------------------*\
| =========                 |                                                 |
| \\      /  F ield         | OpenFOAM: The Open Source CFD Toolbox           |
|  \\    /   O peration     | Version:  2312                                  |
|   \\  /    A nd           | Website:  www.openfoam.com                      |
|    \\/     M anipulation  |                                                 |
\*---------------------------------------------------------------------------*/
FoamFile
{
    version     2.0;
    format      ascii;
    arch        "LSB;label=32;scalar=64";
    class       volScalarField;
    location    "600/solid_chip";
    object      T;
}
// * * * * * * * * * * * * * * * * * * * * * * * * * * * * * * * * * * * * * //

dimensions      [0 0 0 1 0 0 0];

internalField   nonuniform List<scalar> 
66
(
347.187
347.1
347.112
347.21
347.246
347.257
330.214
330.596
330.698
329.744
329.888
347.222
347.204
331.106
330.236
330.403
344.859
332.571
345
333.101
338.46
338.545
338.166
338.659
336.608
336.191
336.776
336.243
344.868
344.678
339.396
338.985
334.091
339.35
344.733
339.292
332.556
332.006
344.779
344.729
334.084
334.011
342.646
342.646
342.777
342.703
342.874
342.622
342.732
342.768
336.452
336.562
344.708
344.716
334.453
334.486
336.747
336.195
339.472
333.694
339.622
344.75
339.164
338.736
338.392
338.786
)
;

boundaryField
{
    chip_top
    {
        type            fixedValue;
        value           uniform 350;
    }
    defaultFaces
    {
        type            zeroGradient;
    }
    solid_chip_to_solid_heatsink
    {
        type            compressible::turbulentTemperatureCoupledBaffleMixed;
        refValue        nonuniform List<scalar> 
14
(
316.553
318.832
318.321
317.71
314.946
317.492
315.564
315.992
319.576
320.447
315.83
314.846
316.367
320.06
)
;
        refGradient     uniform 0;
        valueFraction   nonuniform List<scalar> 
14
(
0.2
0.333333
0.333333
0.333333
0.2
0.2
0.2
0.2
0.333333
0.333333
0.2
0.2
0.2
0.333333
)
;
        source          uniform 0;
        value           nonuniform List<scalar> 
14
(
327.787
329
328.781
328.366
326.784
328.383
327.284
327.521
329.253
329.806
327.355
326.88
327.832
329.655
)
;
        Tnbr            T;
        kappaMethod     solidThermo;
    }
}


// ************************************************************************* //
