/*--------------------------------*- C++ -*----------------------------------*\
| =========                 |                                                 |
| \\      /  F ield         | OpenFOAM: The Open Source CFD Toolbox           |
|  \\    /   O peration     | Version:  2312                                  |
|   \\  /    A nd           | Website:  www.openfoam.com                      |
|    \\/     M anipulation  |                                                 |
\*---------------------------------------------------------------------------*/
FoamFile
{
    version     2.0;
    format      ascii;
    arch        "LSB;label=32;scalar=64";
    class       volScalarField;
    location    "200/solid_heatsink";
    object      T;
}
// * * * * * * * * * * * * * * * * * * * * * * * * * * * * * * * * * * * * * //

dimensions      [0 0 0 1 0 0 0];

internalField   nonuniform List<scalar> 
909
(
300.012
300.006
300.005
300.008
300.008
300.005
300.004
300.009
300.004
300.007
300.005
300.002
300.013
300.011
300.005
300.006
300.01
300.011
300.009
300.004
300.005
300.015
300.027
300.019
300.021
300.007
300.023
300.02
300.013
300.012
300.01
300.008
300.01
300.027
300.017
300.02
300.003
300.005
300.003
300.023
300.007
300.005
300.004
300.002
300.002
300.015
300.005
300.02
300.027
300.009
300.019
300.024
300.005
300.008
300.01
302.487
300.024
300.025
302.376
300.006
300.02
305.583
300.039
305.552
300.003
300.003
300.025
300.002
305.025
300.006
300.017
300.007
309.978
300.015
300.06
300.006
300.007
300.191
300.03
300.005
300.056
300.005
300.497
300.522
305.747
300.936
300.014
300.015
301.188
300.01
300.002
300.002
300.046
300.017
300.019
300.009
300.008
300.201
300.01
300.015
304.66
300.023
300.139
300.661
300.145
309.731
300.015
300.02
300.003
300.004
300.04
311.876
300.014
300.879
316.553
311.748
300.014
300.015
300.032
301.082
300.071
300.147
300.098
300.01
302.343
300.012
300.01
300.005
300.006
300.052
300.7
300.016
312.062
300.373
300.014
300.196
300.014
300.011
302.285
300.012
300.124
301.018
300.037
300.005
300.983
300.003
300.011
304.806
300.004
318.832
301.642
300.021
301.448
300.003
300.791
303.787
307.337
300.022
301.548
300.013
300.017
300.019
300.019
300.021
300.023
300.033
300.012
300.048
300.118
310.261
300.633
300.012
300.023
303.986
300.019
300.004
300.006
300.013
303.566
300.064
300.261
300.147
300.571
305.017
300.055
300.018
318.321
300.022
300.066
300.022
300.023
300.102
300.008
300.017
300.003
307.012
300.166
303.921
300.018
308.477
300.097
300.24
300.007
300.47
301.648
300.133
300.235
302.49
300.049
300.035
303.454
300.323
300.097
300.304
300.425
300.008
300.317
300.035
304.146
300.48
304.705
300.017
300.34
300.019
300.238
300.018
300.018
300.02
300.895
300.072
317.71
300.031
300.025
300.04
300.062
300.016
300.003
300.672
300.026
300.002
300.002
300.014
309.767
300.02
300.3
300.008
300.364
300.526
300.503
300.012
300.028
300.019
300.018
300.081
300.015
300.887
309.227
300.009
305.234
300.008
300.089
300.873
300.191
300.323
300.036
300.008
305.602
303.196
300.038
300.061
300.016
303.951
301.744
300.026
300.314
300.017
300.019
300.027
301.501
300.102
307.647
301.183
300.069
302.72
300.023
300.002
300.002
300.521
305.455
300.005
300.016
300.01
300.518
301.812
300.011
300.109
300.272
300.062
303.775
300.009
300.014
300.024
300.029
300.216
300.095
300.048
300.106
301.647
300.007
300.008
300.013
300.007
300.008
300.014
300.674
300.305
300.291
300.024
300.023
300.04
300.022
300.015
310.589
300.026
300.034
300.119
300.032
300.066
300.016
300.004
300.058
300.025
305.467
300.014
300.419
300.002
300.002
300.238
301.689
300.049
300.045
300.118
300.077
304.481
300.235
302.618
300.013
300.029
302.361
300.003
300.034
301.645
300.051
300.087
314.946
300.028
300.051
301.311
300.002
300.002
301.231
300.022
300.365
301.346
300.271
305.063
300.059
302.182
300.052
301.114
300.038
310.295
300.002
300.003
300.168
300.033
300.02
300.002
300.002
300.261
300.962
300.294
300.148
300.003
300.002
300.053
300.003
300.05
308.363
300.666
300.057
300.049
300.05
300.433
300.058
300.142
300.02
300.011
300.011
317.492
300.673
300.997
302.861
300.051
300.024
300.003
300.002
300.154
300.035
300.013
300.101
300.276
315.564
315.992
300.019
300.869
300.211
300.072
300.051
300.087
300.22
300.295
300.368
300.167
300.009
300.084
300.021
302.318
300.07
300.115
300.001
300.084
300.371
300.559
310.613
300.182
300.606
300.117
300.315
304.227
319.576
302.986
300.013
301.587
300.068
302.191
304.456
300.02
300.355
300.16
300.013
300.111
300.583
301.041
300.045
301.173
320.447
301.843
300.015
300.005
300.277
300.018
300.059
300.085
300.236
300.067
300.011
300.045
300.026
301.707
300.036
301.457
300.032
300.152
300.007
300.318
300.017
300.028
307.816
300.005
300.039
300.084
300.007
300.113
305.116
302.659
300.005
300.009
315.83
300.019
300.011
300.016
300.11
300.073
302.068
300.443
300.032
301.334
300.335
300.175
300.043
300.016
300.623
300.751
300.524
300.143
300.003
300.029
300.197
300.018
300.056
300.803
300.616
300.024
300.043
300.088
300.016
300.1
300.026
300.101
300.061
301.157
300.077
300.035
300.034
300.721
300.019
300.134
300.284
300.962
303.066
300.376
300.018
300.022
302.621
300.021
300.783
300.521
301.927
300.019
300.552
300.85
300.006
300.047
314.846
300.274
300.021
300.949
300.226
300.23
300.077
300.046
300.026
300.004
300.362
303.036
300.075
300.066
300.08
300.604
300.67
300.033
300.068
300.042
300.08
300.045
300.011
300.18
300.616
300.177
300.004
300.447
300.09
300.59
300.019
300.544
300.003
300.16
300.008
300.174
300.352
300.108
300.34
300.071
300.08
300.128
300.053
303.246
300.028
300.002
300.001
300.002
300.003
300.001
300.003
316.367
300.013
300.091
300.115
300.021
300.054
300.003
300.003
300.957
301.989
300.019
300.47
300.04
300.001
300.028
300.05
308.228
300.002
300.031
300.067
300.164
300.183
300.005
300.195
300.992
300.13
300.058
300.003
300.304
300.492
300.02
300.002
300.003
300.002
300.002
300.048
300.086
300.017
300.11
300.155
300.035
300.041
300.201
300.194
300.113
300.014
300.078
300.147
300.001
300.034
302.417
300.003
300.462
300.722
300.001
300.165
300.005
300.045
300.115
300.038
301.553
300.026
300.116
300.024
300.051
300.071
303.017
300.137
300.13
300.134
302.93
300.364
300.214
300.009
300.021
300.002
300.024
300.023
300.026
300.003
300.002
300.018
300.03
300.433
301.107
300.017
300.02
300.014
300.753
300.413
301.879
300.547
301.74
300.019
300.093
300.156
300.761
320.06
300.152
300.002
300.002
300.062
300.001
300.005
300.002
300.04
300.004
300.101
300.02
300.003
300.023
300.002
300.038
300.247
300.317
300.13
300.088
300.02
300.008
300.072
300.035
300.004
300.01
300.047
300.01
300.026
300.001
300.032
300.033
300.001
300.002
301.355
300.005
304.729
300.001
300.011
300.085
300.395
300.058
300.023
300.083
300.003
300.019
300.03
300.063
300.099
300.045
300.132
300.004
300.001
300.001
300.001
301.649
300.001
300.009
300.031
300.003
300.002
300.004
300.004
300.003
300.191
300.003
300.001
300.002
300.002
300.002
300.042
300.076
300.001
300.002
300
300
300.001
300.048
300.012
300.005
300.006
300.006
300.028
300.004
300.007
300.002
300.007
300.028
300.006
300.001
300.005
300.004
300.005
300.002
300.001
300.004
300.016
300
300.024
300.002
300.005
300.018
300.107
300.006
300.001
300.002
300.001
300.001
300.001
300.004
300.001
300.005
300.004
300.017
300.021
300.031
300.006
300.021
300.023
300.003
300.003
300.026
300.025
300.018
300.002
300.003
300.019
300.006
300.003
300.005
300.005
300.002
300.009
300.027
300.021
300.009
300.002
300.001
300
300.002
300.002
300.001
300.006
300.026
300.001
300.001
300.001
300.01
300.002
300.001
300.018
300.002
300.02
300.023
300.001
300.892
302.41
300.072
300.087
300.023
300.03
300.02
300.036
300.028
300.018
300.024
300.02
300.087
300.11
300.01
300.016
300.007
300.01
300.005
300.009
300.007
300.01
300.01
300.013
300.121
300.203
300.121
300.266
300.026
300.04
300.067
300.033
300.011
300.016
300.014
300.02
300.029
300.019
300.024
300.019
300.006
300.007
300.009
300.051
300.031
300.005
300.009
300.015
300.003
300.003
300.004
300.003
300.003
300.003
300.006
300.004
300.008
300.012
300.017
300.013
300.017
300.008
)
;

boundaryField
{
    heatsink_bottom
    {
        type            fixedValue;
        value           uniform 300;
    }
    defaultFaces
    {
        type            zeroGradient;
    }
    solid_heatsink_to_solid_chip
    {
        type            compressible::turbulentTemperatureCoupledBaffleMixed;
        refValue        nonuniform List<scalar> 
14
(
330.596
334.084
334.011
333.694
329.744
331.106
330.214
330.403
334.091
334.486
330.236
329.888
330.698
334.453
)
;
        refGradient     uniform 0;
        valueFraction   nonuniform List<scalar> 
14
(
0.8
0.666667
0.666667
0.666667
0.8
0.8
0.8
0.8
0.666667
0.666667
0.8
0.8
0.8
0.666667
)
;
        source          uniform 0;
        value           nonuniform List<scalar> 
14
(
327.787
329
328.781
328.366
326.784
328.383
327.284
327.521
329.253
329.806
327.355
326.88
327.832
329.655
)
;
        Tnbr            T;
        kappaMethod     solidThermo;
    }
}


// ************************************************************************* //
