    1C
    1USimOps Thermal Analysis: mesh.msh                                 
    1UUSER                                                              
    1UDATE              19.december.2025                                
    1UTIME              21:37:25                                        
    1UHOST                                                              
    1UPGM               CalculiX                                        
    1UVERSION           Version 2.22                             
    1UCOMPILETIME       Sun Aug  4 19:39:24     2024                    
    1UDIR                                                               
    1UDBN                                                               
    1UMAT    1MAT1                                                      
    2C                          2631                                     1
 -1         1 0.00000E+00 0.00000E+00 0.00000E+00
 -1         2 0.00000E+00 0.00000E+00 5.00000E-02
 -1         3 0.00000E+00 1.00000E-02 0.00000E+00
 -1         4 0.00000E+00 1.00000E-02 5.00000E-02
 -1         5 1.00000E-02 0.00000E+00 0.00000E+00
 -1         6 1.00000E-02 0.00000E+00 5.00000E-02
 -1         7 1.00000E-02 1.00000E-02 0.00000E+00
 -1         8 1.00000E-02 1.00000E-02 5.00000E-02
 -1         9 0.00000E+00 0.00000E+00 2.00200E-03
 -1        10 0.00000E+00 0.00000E+00 4.00200E-03
 -1        11 0.00000E+00 0.00000E+00 6.00100E-03
 -1        12 0.00000E+00 0.00000E+00 8.00300E-03
 -1        13 0.00000E+00 0.00000E+00 1.00000E-02
 -1        14 0.00000E+00 0.00000E+00 1.20020E-02
 -1        15 0.00000E+00 0.00000E+00 1.39990E-02
 -1        16 0.00000E+00 0.00000E+00 1.60010E-02
 -1        17 0.00000E+00 0.00000E+00 1.80030E-02
 -1        18 0.00000E+00 0.00000E+00 2.00000E-02
 -1        19 0.00000E+00 0.00000E+00 2.19970E-02
 -1        20 0.00000E+00 0.00000E+00 2.39990E-02
 -1        21 0.00000E+00 0.00000E+00 2.60010E-02
 -1        22 0.00000E+00 0.00000E+00 2.80030E-02
 -1        23 0.00000E+00 0.00000E+00 3.00000E-02
 -1        24 0.00000E+00 0.00000E+00 3.19970E-02
 -1        25 0.00000E+00 0.00000E+00 3.39990E-02
 -1        26 0.00000E+00 0.00000E+00 3.60010E-02
 -1        27 0.00000E+00 0.00000E+00 3.79980E-02
 -1        28 0.00000E+00 0.00000E+00 4.00000E-02
 -1        29 0.00000E+00 0.00000E+00 4.19970E-02
 -1        30 0.00000E+00 0.00000E+00 4.39990E-02
 -1        31 0.00000E+00 0.00000E+00 4.59980E-02
 -1        32 0.00000E+00 0.00000E+00 4.79980E-02
 -1        33 0.00000E+00 2.00000E-03 0.00000E+00
 -1        34 0.00000E+00 4.00000E-03 0.00000E+00
 -1        35 0.00000E+00 6.00000E-03 0.00000E+00
 -1        36 0.00000E+00 8.00000E-03 0.00000E+00
 -1        37 0.00000E+00 1.00000E-02 2.00100E-03
 -1        38 0.00000E+00 1.00000E-02 4.00000E-03
 -1        39 0.00000E+00 1.00000E-02 5.99800E-03
 -1        40 0.00000E+00 1.00000E-02 7.99900E-03
 -1        41 0.00000E+00 1.00000E-02 9.99500E-03
 -1        42 0.00000E+00 1.00000E-02 1.19960E-02
 -1        43 0.00000E+00 1.00000E-02 1.39920E-02
 -1        44 0.00000E+00 1.00000E-02 1.59930E-02
 -1        45 0.00000E+00 1.00000E-02 1.79940E-02
 -1        46 0.00000E+00 1.00000E-02 1.99980E-02
 -1        47 0.00000E+00 1.00000E-02 2.19950E-02
 -1        48 0.00000E+00 1.00000E-02 2.40000E-02
 -1        49 0.00000E+00 1.00000E-02 2.60000E-02
 -1        50 0.00000E+00 1.00000E-02 2.80050E-02
 -1        51 0.00000E+00 1.00000E-02 3.00020E-02
 -1        52 0.00000E+00 1.00000E-02 3.20060E-02
 -1        53 0.00000E+00 1.00000E-02 3.40070E-02
 -1        54 0.00000E+00 1.00000E-02 3.60080E-02
 -1        55 0.00000E+00 1.00000E-02 3.80040E-02
 -1        56 0.00000E+00 1.00000E-02 4.00050E-02
 -1        57 0.00000E+00 1.00000E-02 4.20010E-02
 -1        58 0.00000E+00 1.00000E-02 4.40020E-02
 -1        59 0.00000E+00 1.00000E-02 4.60000E-02
 -1        60 0.00000E+00 1.00000E-02 4.79990E-02
 -1        61 0.00000E+00 2.00000E-03 5.00000E-02
 -1        62 0.00000E+00 4.00000E-03 5.00000E-02
 -1        63 0.00000E+00 6.00000E-03 5.00000E-02
 -1        64 0.00000E+00 8.00000E-03 5.00000E-02
 -1        65 1.00000E-02 0.00000E+00 2.00200E-03
 -1        66 1.00000E-02 0.00000E+00 4.00200E-03
 -1        67 1.00000E-02 0.00000E+00 6.00100E-03
 -1        68 1.00000E-02 0.00000E+00 8.00300E-03
 -1        69 1.00000E-02 0.00000E+00 1.00000E-02
 -1        70 1.00000E-02 0.00000E+00 1.20020E-02
 -1        71 1.00000E-02 0.00000E+00 1.39990E-02
 -1        72 1.00000E-02 0.00000E+00 1.60010E-02
 -1        73 1.00000E-02 0.00000E+00 1.80030E-02
 -1        74 1.00000E-02 0.00000E+00 2.00000E-02
 -1        75 1.00000E-02 0.00000E+00 2.19970E-02
 -1        76 1.00000E-02 0.00000E+00 2.39990E-02
 -1        77 1.00000E-02 0.00000E+00 2.60010E-02
 -1        78 1.00000E-02 0.00000E+00 2.80030E-02
 -1        79 1.00000E-02 0.00000E+00 3.00000E-02
 -1        80 1.00000E-02 0.00000E+00 3.19970E-02
 -1        81 1.00000E-02 0.00000E+00 3.39990E-02
 -1        82 1.00000E-02 0.00000E+00 3.60010E-02
 -1        83 1.00000E-02 0.00000E+00 3.79980E-02
 -1        84 1.00000E-02 0.00000E+00 4.00000E-02
 -1        85 1.00000E-02 0.00000E+00 4.19970E-02
 -1        86 1.00000E-02 0.00000E+00 4.39990E-02
 -1        87 1.00000E-02 0.00000E+00 4.59980E-02
 -1        88 1.00000E-02 0.00000E+00 4.79980E-02
 -1        89 1.00000E-02 2.00000E-03 0.00000E+00
 -1        90 1.00000E-02 4.00000E-03 0.00000E+00
 -1        91 1.00000E-02 6.00000E-03 0.00000E+00
 -1        92 1.00000E-02 8.00000E-03 0.00000E+00
 -1        93 1.00000E-02 1.00000E-02 2.00200E-03
 -1        94 1.00000E-02 1.00000E-02 4.00200E-03
 -1        95 1.00000E-02 1.00000E-02 6.00100E-03
 -1        96 1.00000E-02 1.00000E-02 8.00300E-03
 -1        97 1.00000E-02 1.00000E-02 1.00000E-02
 -1        98 1.00000E-02 1.00000E-02 1.20020E-02
 -1        99 1.00000E-02 1.00000E-02 1.39990E-02
 -1       100 1.00000E-02 1.00000E-02 1.60010E-02
 -1       101 1.00000E-02 1.00000E-02 1.80030E-02
 -1       102 1.00000E-02 1.00000E-02 2.00000E-02
 -1       103 1.00000E-02 1.00000E-02 2.19970E-02
 -1       104 1.00000E-02 1.00000E-02 2.39990E-02
 -1       105 1.00000E-02 1.00000E-02 2.60010E-02
 -1       106 1.00000E-02 1.00000E-02 2.80030E-02
 -1       107 1.00000E-02 1.00000E-02 3.00000E-02
 -1       108 1.00000E-02 1.00000E-02 3.19970E-02
 -1       109 1.00000E-02 1.00000E-02 3.39990E-02
 -1       110 1.00000E-02 1.00000E-02 3.60010E-02
 -1       111 1.00000E-02 1.00000E-02 3.79980E-02
 -1       112 1.00000E-02 1.00000E-02 4.00000E-02
 -1       113 1.00000E-02 1.00000E-02 4.19970E-02
 -1       114 1.00000E-02 1.00000E-02 4.39990E-02
 -1       115 1.00000E-02 1.00000E-02 4.59980E-02
 -1       116 1.00000E-02 1.00000E-02 4.79980E-02
 -1       117 1.00000E-02 2.00000E-03 5.00000E-02
 -1       118 1.00000E-02 4.00000E-03 5.00000E-02
 -1       119 1.00000E-02 6.00000E-03 5.00000E-02
 -1       120 1.00000E-02 8.00000E-03 5.00000E-02
 -1       121 2.00000E-03 0.00000E+00 0.00000E+00
 -1       122 4.00000E-03 0.00000E+00 0.00000E+00
 -1       123 6.00000E-03 0.00000E+00 0.00000E+00
 -1       124 8.00000E-03 0.00000E+00 0.00000E+00
 -1       125 2.00000E-03 0.00000E+00 5.00000E-02
 -1       126 4.00000E-03 0.00000E+00 5.00000E-02
 -1       127 6.00000E-03 0.00000E+00 5.00000E-02
 -1       128 8.00000E-03 0.00000E+00 5.00000E-02
 -1       129 2.00000E-03 1.00000E-02 0.00000E+00
 -1       130 4.00000E-03 1.00000E-02 0.00000E+00
 -1       131 6.00000E-03 1.00000E-02 0.00000E+00
 -1       132 8.00000E-03 1.00000E-02 0.00000E+00
 -1       133 2.00000E-03 1.00000E-02 5.00000E-02
 -1       134 4.00000E-03 1.00000E-02 5.00000E-02
 -1       135 6.00000E-03 1.00000E-02 5.00000E-02
 -1       136 8.00000E-03 1.00000E-02 5.00000E-02
 -1       137 0.00000E+00 8.31700E-03 3.90300E-02
 -1       138 0.00000E+00 8.31600E-03 1.09700E-02
 -1       139 0.00000E+00 8.27100E-03 2.90030E-02
 -1       140 0.00000E+00 8.27000E-03 2.09970E-02
 -1       141 0.00000E+00 8.27100E-03 4.30020E-02
 -1       142 0.00000E+00 8.27000E-03 6.99800E-03
 -1       143 0.00000E+00 8.31600E-03 3.49800E-02
 -1       144 0.00000E+00 8.31500E-03 1.50210E-02
 -1       145 0.00000E+00 8.27000E-03 2.50010E-02
 -1       146 0.00000E+00 1.73000E-03 1.90010E-02
 -1       147 0.00000E+00 1.73000E-03 3.09990E-02
 -1       148 0.00000E+00 1.68400E-03 4.09740E-02
 -1       149 0.00000E+00 1.68400E-03 9.02600E-03
 -1       150 0.00000E+00 1.64500E-03 4.49110E-02
 -1       151 0.00000E+00 1.64500E-03 5.08800E-03
 -1       152 0.00000E+00 1.73000E-03 3.70010E-02
 -1       153 0.00000E+00 1.73000E-03 1.29990E-02
 -1       154 0.00000E+00 1.73200E-03 2.29980E-02
 -1       155 0.00000E+00 1.73200E-03 2.70020E-02
 -1       156 0.00000E+00 4.90300E-03 4.83720E-02
 -1       157 0.00000E+00 4.90300E-03 1.62800E-03
 -1       158 0.00000E+00 8.30800E-03 3.00900E-03
 -1       159 0.00000E+00 8.30800E-03 4.69910E-02
 -1       160 0.00000E+00 8.27000E-03 2.29980E-02
 -1       161 0.00000E+00 6.54000E-03 2.19950E-02
 -1       162 0.00000E+00 6.54100E-03 1.99980E-02
 -1       163 0.00000E+00 4.81100E-03 2.09960E-02
 -1       164 0.00000E+00 4.81200E-03 1.89980E-02
 -1       165 0.00000E+00 4.80900E-03 2.29930E-02
 -1       166 0.00000E+00 6.55500E-03 1.80250E-02
 -1       167 0.00000E+00 4.92600E-03 1.70030E-02
 -1       168 0.00000E+00 8.27100E-03 2.70050E-02
 -1       169 0.00000E+00 6.54100E-03 2.80050E-02
 -1       170 0.00000E+00 6.54100E-03 3.00020E-02
 -1       171 0.00000E+00 4.81100E-03 2.90040E-02
 -1       172 0.00000E+00 4.81200E-03 3.10020E-02
 -1       173 0.00000E+00 4.81100E-03 2.70070E-02
 -1       174 0.00000E+00 6.55500E-03 3.19750E-02
 -1       175 0.00000E+00 4.92600E-03 3.29970E-02
 -1       176 0.00000E+00 1.70800E-03 1.10300E-02
 -1       177 0.00000E+00 3.44200E-03 1.20300E-02
 -1       178 0.00000E+00 3.44300E-03 1.39770E-02
 -1       179 0.00000E+00 5.19000E-03 1.29970E-02
 -1       180 0.00000E+00 5.07500E-03 1.10010E-02
 -1       181 0.00000E+00 5.08900E-03 1.49950E-02
 -1       182 0.00000E+00 1.70800E-03 3.89700E-02
 -1       183 0.00000E+00 3.44200E-03 3.79700E-02
 -1       184 0.00000E+00 3.44300E-03 3.60230E-02
 -1       185 0.00000E+00 5.19000E-03 3.70030E-02
 -1       186 0.00000E+00 5.07500E-03 3.89980E-02
 -1       187 0.00000E+00 5.08900E-03 3.50050E-02
 -1       188 0.00000E+00 8.29200E-03 8.96700E-03
 -1       189 0.00000E+00 6.55900E-03 7.96700E-03
 -1       190 0.00000E+00 6.54300E-03 5.99400E-03
 -1       191 0.00000E+00 4.81100E-03 6.99900E-03
 -1       192 0.00000E+00 4.81700E-03 4.84800E-03
 -1       193 0.00000E+00 4.91200E-03 8.99500E-03
 -1       194 0.00000E+00 8.29300E-03 4.10330E-02
 -1       195 0.00000E+00 6.55900E-03 4.20320E-02
 -1       196 0.00000E+00 6.54300E-03 4.40050E-02
 -1       197 0.00000E+00 4.81100E-03 4.30000E-02
 -1       198 0.00000E+00 4.81800E-03 4.51520E-02
 -1       199 0.00000E+00 4.91300E-03 4.10040E-02
 -1       200 0.00000E+00 1.64500E-03 7.02000E-03
 -1       201 0.00000E+00 1.64500E-03 4.29800E-02
 -1       202 0.00000E+00 1.73300E-03 2.49990E-02
 -1       203 0.00000E+00 8.34900E-03 3.70060E-02
 -1       204 0.00000E+00 8.32600E-03 1.29940E-02
 -1       205 0.00000E+00 1.68400E-03 3.30250E-02
 -1       206 0.00000E+00 1.68400E-03 1.69750E-02
 -1       207 0.00000E+00 1.70500E-03 1.49660E-02
 -1       208 0.00000E+00 1.70500E-03 3.50340E-02
 -1       209 0.00000E+00 1.73200E-03 2.10000E-02
 -1       210 0.00000E+00 1.73200E-03 2.90000E-02
 -1       211 0.00000E+00 8.27700E-03 4.50000E-02
 -1       212 0.00000E+00 1.90600E-03 4.68470E-02
 -1       213 0.00000E+00 1.90600E-03 3.15300E-03
 -1       214 0.00000E+00 8.27700E-03 5.00000E-03
 -1       215 0.00000E+00 6.71100E-03 4.60610E-02
 -1       216 0.00000E+00 8.29400E-03 1.70320E-02
 -1       217 0.00000E+00 8.29400E-03 3.29680E-02
 -1       218 0.00000E+00 6.54100E-03 2.60070E-02
 -1       219 0.00000E+00 4.81000E-03 2.50080E-02
 -1       220 0.00000E+00 8.27100E-03 1.90000E-02
 -1       221 0.00000E+00 6.71100E-03 3.93800E-03
 -1       222 0.00000E+00 8.27100E-03 3.10000E-02
 -1       223 0.00000E+00 6.54000E-03 2.40000E-02
 -1       224 0.00000E+00 3.06000E-03 4.83830E-02
 -1       225 0.00000E+00 6.84000E-03 4.81220E-02
 -1       226 0.00000E+00 6.84000E-03 1.87800E-03
 -1       227 0.00000E+00 3.06100E-03 1.61700E-03
 -1       228 0.00000E+00 3.87400E-03 4.68540E-02
 -1       229 0.00000E+00 3.87400E-03 3.14500E-03
 -1       230 0.00000E+00 6.64300E-03 4.00570E-02
 -1       231 0.00000E+00 3.35500E-03 3.99460E-02
 -1       232 0.00000E+00 3.35800E-03 1.59450E-02
 -1       233 0.00000E+00 3.35500E-03 1.00540E-02
 -1       234 0.00000E+00 6.64200E-03 9.94200E-03
 -1       235 0.00000E+00 3.35900E-03 3.40550E-02
 -1       236 0.00000E+00 6.64300E-03 1.60530E-02
 -1       237 0.00000E+00 6.64400E-03 3.39470E-02
 -1       238 0.00000E+00 3.28000E-03 4.19840E-02
 -1       239 0.00000E+00 6.71800E-03 3.80170E-02
 -1       240 0.00000E+00 3.27900E-03 8.01600E-03
 -1       241 0.00000E+00 3.27100E-03 3.00020E-02
 -1       242 0.00000E+00 3.27300E-03 2.40000E-02
 -1       243 0.00000E+00 3.22200E-03 6.08200E-03
 -1       244 0.00000E+00 3.27000E-03 3.19970E-02
 -1       245 0.00000E+00 3.27100E-03 1.99980E-02
 -1       246 0.00000E+00 3.27000E-03 1.80020E-02
 -1       247 0.00000E+00 6.73100E-03 1.19930E-02
 -1       248 0.00000E+00 3.22200E-03 4.39170E-02
 -1       249 0.00000E+00 6.71800E-03 3.59930E-02
 -1       250 0.00000E+00 6.71600E-03 1.40090E-02
 -1       251 0.00000E+00 3.27200E-03 2.80040E-02
 -1       252 0.00000E+00 3.27100E-03 2.19980E-02
 -1       253 0.00000E+00 3.27200E-03 2.60030E-02
 -1       254 0.00000E+00 1.46500E-03 4.85340E-02
 -1       255 0.00000E+00 1.46500E-03 1.46500E-03
 -1       256 0.00000E+00 8.53600E-03 1.46400E-03
 -1       257 0.00000E+00 8.53600E-03 4.85360E-02
 -1       258 0.00000E+00 3.13700E-03 4.54770E-02
 -1       259 0.00000E+00 3.13600E-03 4.52200E-03
 -1       260 0.00000E+00 5.42000E-03 3.10400E-03
 -1       261 0.00000E+00 5.42000E-03 4.68960E-02
 -1       262 1.00000E-02 1.73000E-03 3.89980E-02
 -1       263 1.00000E-02 1.73000E-03 1.10010E-02
 -1       264 1.00000E-02 1.73100E-03 1.90010E-02
 -1       265 1.00000E-02 8.27000E-03 2.90010E-02
 -1       266 1.00000E-02 1.73000E-03 4.29980E-02
 -1       267 1.00000E-02 8.31500E-03 6.97700E-03
 -1       268 1.00000E-02 1.73100E-03 3.29980E-02
 -1       269 1.00000E-02 1.73200E-03 1.50000E-02
 -1       270 1.00000E-02 1.73200E-03 2.29980E-02
 -1       271 1.00000E-02 8.27000E-03 3.70000E-02
 -1       272 1.00000E-02 8.27000E-03 4.09990E-02
 -1       273 1.00000E-02 8.35500E-03 4.49100E-02
 -1       274 1.00000E-02 1.73100E-03 5.00200E-03
 -1       275 1.00000E-02 8.27000E-03 1.30000E-02
 -1       276 1.00000E-02 8.27000E-03 2.09990E-02
 -1       277 1.00000E-02 1.73100E-03 2.70010E-02
 -1       278 1.00000E-02 8.31700E-03 1.69740E-02
 -1       279 1.00000E-02 8.26600E-03 2.50000E-02
 -1       280 1.00000E-02 8.26800E-03 3.29980E-02
 -1       281 1.00000E-02 5.09700E-03 4.83710E-02
 -1       282 1.00000E-02 4.99400E-03 1.34400E-03
 -1       283 1.00000E-02 8.30700E-03 3.01100E-03
 -1       284 1.00000E-02 1.69300E-03 4.69890E-02
 -1       285 1.00000E-02 1.73000E-03 9.00100E-03
 -1       286 1.00000E-02 3.44500E-03 9.97600E-03
 -1       287 1.00000E-02 3.45800E-03 7.99800E-03
 -1       288 1.00000E-02 3.41100E-03 1.19700E-02
 -1       289 1.00000E-02 5.16900E-03 8.99500E-03
 -1       290 1.00000E-02 5.07400E-03 6.97500E-03
 -1       291 1.00000E-02 1.73100E-03 4.09980E-02
 -1       292 1.00000E-02 3.46000E-03 3.99980E-02
 -1       293 1.00000E-02 3.45900E-03 3.79990E-02
 -1       294 1.00000E-02 5.19000E-03 3.89970E-02
 -1       295 1.00000E-02 5.18800E-03 3.69990E-02
 -1       296 1.00000E-02 5.19100E-03 4.09940E-02
 -1       297 1.00000E-02 3.45900E-03 3.59990E-02
 -1       298 1.00000E-02 5.18700E-03 3.50010E-02
 -1       299 1.00000E-02 8.27000E-03 3.89990E-02
 -1       300 1.00000E-02 8.30100E-03 1.10020E-02
 -1       301 1.00000E-02 6.62400E-03 1.19830E-02
 -1       302 1.00000E-02 6.63200E-03 1.39700E-02
 -1       303 1.00000E-02 8.32400E-03 9.00000E-03
 -1       304 1.00000E-02 3.46100E-03 4.19970E-02
 -1       305 1.00000E-02 3.46200E-03 4.39960E-02
 -1       306 1.00000E-02 5.19400E-03 4.29930E-02
 -1       307 1.00000E-02 5.18500E-03 4.51470E-02
 -1       308 1.00000E-02 3.29100E-03 4.60590E-02
 -1       309 1.00000E-02 8.27000E-03 4.29980E-02
 -1       310 1.00000E-02 1.73100E-03 3.09980E-02
 -1       311 1.00000E-02 3.46200E-03 3.19960E-02
 -1       312 1.00000E-02 3.46100E-03 2.99980E-02
 -1       313 1.00000E-02 5.19300E-03 3.09950E-02
 -1       314 1.00000E-02 5.19100E-03 2.89960E-02
 -1       315 1.00000E-02 5.19500E-03 3.29950E-02
 -1       316 1.00000E-02 8.29800E-03 4.97300E-03
 -1       317 1.00000E-02 6.68400E-03 3.98000E-03
 -1       318 1.00000E-02 1.73200E-03 2.50000E-02
 -1       319 1.00000E-02 3.46400E-03 2.39980E-02
 -1       320 1.00000E-02 3.46300E-03 2.19990E-02
 -1       321 1.00000E-02 5.19500E-03 2.29970E-02
 -1       322 1.00000E-02 5.19400E-03 2.09980E-02
 -1       323 1.00000E-02 5.19600E-03 2.49970E-02
 -1       324 1.00000E-02 3.46400E-03 2.60000E-02
 -1       325 1.00000E-02 1.73000E-03 7.00100E-03
 -1       326 1.00000E-02 1.73100E-03 1.70010E-02
 -1       327 1.00000E-02 3.46200E-03 1.80010E-02
 -1       328 1.00000E-02 3.43000E-03 1.60010E-02
 -1       329 1.00000E-02 5.10900E-03 1.69820E-02
 -1       330 1.00000E-02 3.40700E-03 1.39960E-02
 -1       331 1.00000E-02 8.26700E-03 3.49990E-02
 -1       332 1.00000E-02 3.44700E-03 6.00100E-03
 -1       333 1.00000E-02 3.32900E-03 4.00900E-03
 -1       334 1.00000E-02 1.69800E-03 3.00900E-03
 -1       335 1.00000E-02 1.72400E-03 1.29980E-02
 -1       336 1.00000E-02 8.27000E-03 2.70040E-02
 -1       337 1.00000E-02 1.69600E-03 4.50070E-02
 -1       338 1.00000E-02 8.26900E-03 2.29980E-02
 -1       339 1.00000E-02 8.30600E-03 1.89980E-02
 -1       340 1.00000E-02 8.09300E-03 4.68460E-02
 -1       341 1.00000E-02 1.73100E-03 2.09990E-02
 -1       342 1.00000E-02 8.26800E-03 3.10000E-02
 -1       343 1.00000E-02 5.18100E-03 2.69970E-02
 -1       344 1.00000E-02 8.30800E-03 1.49650E-02
 -1       345 1.00000E-02 1.73100E-03 2.90000E-02
 -1       346 1.00000E-02 5.15300E-03 1.89990E-02
 -1       347 1.00000E-02 1.73000E-03 3.49980E-02
 -1       348 1.00000E-02 1.73000E-03 3.69990E-02
 -1       349 1.00000E-02 3.45600E-03 1.99990E-02
 -1       350 1.00000E-02 3.46300E-03 3.39940E-02
 -1       351 1.00000E-02 3.46000E-03 2.79990E-02
 -1       352 1.00000E-02 3.17600E-03 1.82500E-03
 -1       353 1.00000E-02 6.84200E-03 1.78100E-03
 -1       354 1.00000E-02 3.16100E-03 4.81220E-02
 -1       355 1.00000E-02 6.93900E-03 4.83830E-02
 -1       356 1.00000E-02 6.12600E-03 4.68530E-02
 -1       357 1.00000E-02 5.06300E-03 1.09880E-02
 -1       358 1.00000E-02 6.68300E-03 5.98500E-03
 -1       359 1.00000E-02 6.68300E-03 1.59820E-02
 -1       360 1.00000E-02 6.73100E-03 3.79990E-02
 -1       361 1.00000E-02 6.72900E-03 3.60010E-02
 -1       362 1.00000E-02 6.73000E-03 3.99970E-02
 -1       363 1.00000E-02 6.71600E-03 7.99000E-03
 -1       364 1.00000E-02 6.73100E-03 1.00060E-02
 -1       365 1.00000E-02 5.02300E-03 1.29840E-02
 -1       366 1.00000E-02 6.72800E-03 3.40010E-02
 -1       367 1.00000E-02 5.04700E-03 1.49860E-02
 -1       368 1.00000E-02 6.73100E-03 2.99980E-02
 -1       369 1.00000E-02 6.73000E-03 4.19940E-02
 -1       370 1.00000E-02 6.73000E-03 2.80000E-02
 -1       371 1.00000E-02 6.73200E-03 2.19980E-02
 -1       372 1.00000E-02 5.03100E-03 5.05300E-03
 -1       373 1.00000E-02 6.71700E-03 1.79890E-02
 -1       374 1.00000E-02 6.72900E-03 1.99970E-02
 -1       375 1.00000E-02 6.76600E-03 4.39190E-02
 -1       376 1.00000E-02 6.73100E-03 3.19980E-02
 -1       377 1.00000E-02 6.73300E-03 2.39990E-02
 -1       378 1.00000E-02 6.73200E-03 2.60010E-02
 -1       379 1.00000E-02 4.99800E-03 3.10400E-03
 -1       380 1.00000E-02 1.46500E-03 1.46600E-03
 -1       381 1.00000E-02 8.53500E-03 1.46500E-03
 -1       382 1.00000E-02 1.46500E-03 4.85350E-02
 -1       383 1.00000E-02 8.53500E-03 4.85350E-02
 -1       384 1.00000E-02 6.86100E-03 4.54730E-02
 -1       385 1.00000E-02 4.58100E-03 4.68970E-02
 -1       386 8.27000E-03 0.00000E+00 3.89990E-02
 -1       387 1.73000E-03 0.00000E+00 1.10010E-02
 -1       388 1.71600E-03 0.00000E+00 1.90260E-02
 -1       389 8.26800E-03 0.00000E+00 3.09990E-02
 -1       390 8.27000E-03 0.00000E+00 4.29980E-02
 -1       391 1.73000E-03 0.00000E+00 7.00200E-03
 -1       392 1.65100E-03 0.00000E+00 3.50180E-02
 -1       393 1.68400E-03 0.00000E+00 1.49740E-02
 -1       394 8.26700E-03 0.00000E+00 2.29980E-02
 -1       395 1.73200E-03 0.00000E+00 2.70020E-02
 -1       396 1.71000E-03 0.00000E+00 4.10050E-02
 -1       397 8.27000E-03 0.00000E+00 9.00100E-03
 -1       398 1.64500E-03 0.00000E+00 4.49100E-02
 -1       399 8.35500E-03 0.00000E+00 5.09000E-03
 -1       400 8.31600E-03 0.00000E+00 1.30260E-02
 -1       401 8.26900E-03 0.00000E+00 1.70010E-02
 -1       402 1.73000E-03 0.00000E+00 3.09990E-02
 -1       403 8.26900E-03 0.00000E+00 3.50000E-02
 -1       404 1.68400E-03 0.00000E+00 2.29730E-02
 -1       405 8.26800E-03 0.00000E+00 2.70010E-02
 -1       406 4.90300E-03 0.00000E+00 4.83710E-02
 -1       407 5.09700E-03 0.00000E+00 1.62900E-03
 -1       408 1.69300E-03 0.00000E+00 3.01100E-03
 -1       409 8.30700E-03 0.00000E+00 4.69890E-02
 -1       410 1.73100E-03 0.00000E+00 9.00200E-03
 -1       411 3.46000E-03 0.00000E+00 1.00020E-02
 -1       412 3.44500E-03 0.00000E+00 1.19750E-02
 -1       413 5.19000E-03 0.00000E+00 1.10030E-02
 -1       414 5.07400E-03 0.00000E+00 1.29980E-02
 -1       415 5.19100E-03 0.00000E+00 9.00500E-03
 -1       416 8.26900E-03 0.00000E+00 4.09980E-02
 -1       417 6.54000E-03 0.00000E+00 3.99980E-02
 -1       418 6.54100E-03 0.00000E+00 3.79990E-02
 -1       419 4.84200E-03 0.00000E+00 3.89970E-02
 -1       420 4.82900E-03 0.00000E+00 3.70240E-02
 -1       421 4.82700E-03 0.00000E+00 4.09950E-02
 -1       422 3.21600E-03 0.00000E+00 3.80540E-02
 -1       423 8.29600E-03 0.00000E+00 1.10010E-02
 -1       424 3.46100E-03 0.00000E+00 8.00300E-03
 -1       425 3.46200E-03 0.00000E+00 6.00400E-03
 -1       426 5.19400E-03 0.00000E+00 7.00700E-03
 -1       427 5.18500E-03 0.00000E+00 4.85300E-03
 -1       428 3.29100E-03 0.00000E+00 3.94100E-03
 -1       429 6.53900E-03 0.00000E+00 4.19980E-02
 -1       430 6.53700E-03 0.00000E+00 4.39960E-02
 -1       431 4.80600E-03 0.00000E+00 4.29930E-02
 -1       432 4.81500E-03 0.00000E+00 4.51470E-02
 -1       433 6.70800E-03 0.00000E+00 4.60590E-02
 -1       434 8.27000E-03 0.00000E+00 7.00200E-03
 -1       435 1.70900E-03 0.00000E+00 4.29940E-02
 -1       436 8.26900E-03 0.00000E+00 1.90000E-02
 -1       437 6.57000E-03 0.00000E+00 1.80010E-02
 -1       438 6.55500E-03 0.00000E+00 1.99990E-02
 -1       439 6.55800E-03 0.00000E+00 1.60270E-02
 -1       440 4.89400E-03 0.00000E+00 1.70230E-02
 -1       441 4.96600E-03 0.00000E+00 1.50090E-02
 -1       442 8.26800E-03 0.00000E+00 2.49990E-02
 -1       443 6.53600E-03 0.00000E+00 2.60000E-02
 -1       444 6.53600E-03 0.00000E+00 2.80000E-02
 -1       445 4.80500E-03 0.00000E+00 2.70010E-02
 -1       446 4.80500E-03 0.00000E+00 2.90000E-02
 -1       447 4.80400E-03 0.00000E+00 2.50020E-02
 -1       448 6.53600E-03 0.00000E+00 2.99990E-02
 -1       449 4.80500E-03 0.00000E+00 3.09990E-02
 -1       450 6.53600E-03 0.00000E+00 3.19990E-02
 -1       451 4.80500E-03 0.00000E+00 3.29970E-02
 -1       452 8.26800E-03 0.00000E+00 3.29990E-02
 -1       453 6.53700E-03 0.00000E+00 3.39990E-02
 -1       454 4.85900E-03 0.00000E+00 3.50280E-02
 -1       455 1.69500E-03 0.00000E+00 2.49980E-02
 -1       456 6.53500E-03 0.00000E+00 2.39990E-02
 -1       457 4.88500E-03 0.00000E+00 2.29810E-02
 -1       458 1.69200E-03 0.00000E+00 3.30000E-02
 -1       459 1.67300E-03 0.00000E+00 1.70270E-02
 -1       460 1.69600E-03 0.00000E+00 4.99300E-03
 -1       461 8.30400E-03 0.00000E+00 4.50060E-02
 -1       462 8.29500E-03 0.00000E+00 1.50350E-02
 -1       463 8.27000E-03 0.00000E+00 2.09990E-02
 -1       464 1.90700E-03 0.00000E+00 4.68460E-02
 -1       465 8.09300E-03 0.00000E+00 3.15400E-03
 -1       466 1.70600E-03 0.00000E+00 2.09730E-02
 -1       467 3.36000E-03 0.00000E+00 1.99980E-02
 -1       468 8.26800E-03 0.00000E+00 2.90000E-02
 -1       469 1.73200E-03 0.00000E+00 2.90000E-02
 -1       470 1.70500E-03 0.00000E+00 1.29660E-02
 -1       471 8.27000E-03 0.00000E+00 3.70000E-02
 -1       472 6.58500E-03 0.00000E+00 2.19950E-02
 -1       473 6.55100E-03 0.00000E+00 3.60080E-02
 -1       474 3.16100E-03 0.00000E+00 1.87800E-03
 -1       475 6.83900E-03 0.00000E+00 4.81220E-02
 -1       476 6.93900E-03 0.00000E+00 1.61700E-03
 -1       477 3.06100E-03 0.00000E+00 4.83830E-02
 -1       478 6.12600E-03 0.00000E+00 3.14700E-03
 -1       479 3.87400E-03 0.00000E+00 4.68530E-02
 -1       480 1.62300E-03 0.00000E+00 3.90090E-02
 -1       481 6.65700E-03 0.00000E+00 1.40160E-02
 -1       482 3.35700E-03 0.00000E+00 1.39870E-02
 -1       483 3.22700E-03 0.00000E+00 3.60200E-02
 -1       484 3.31900E-03 0.00000E+00 1.80130E-02
 -1       485 3.31700E-03 0.00000E+00 2.19870E-02
 -1       486 6.73100E-03 0.00000E+00 1.20000E-02
 -1       487 1.61900E-03 0.00000E+00 3.70160E-02
 -1       488 6.73500E-03 0.00000E+00 1.00030E-02
 -1       489 3.27100E-03 0.00000E+00 3.99950E-02
 -1       490 4.96300E-03 0.00000E+00 1.90030E-02
 -1       491 3.27100E-03 0.00000E+00 4.19920E-02
 -1       492 6.73200E-03 0.00000E+00 8.00400E-03
 -1       493 3.26700E-03 0.00000E+00 3.19970E-02
 -1       494 3.26800E-03 0.00000E+00 3.00000E-02
 -1       495 3.30200E-03 0.00000E+00 1.60050E-02
 -1       496 3.23100E-03 0.00000E+00 4.39180E-02
 -1       497 6.76600E-03 0.00000E+00 6.08100E-03
 -1       498 3.26800E-03 0.00000E+00 2.80010E-02
 -1       499 3.26800E-03 0.00000E+00 2.60020E-02
 -1       500 4.94400E-03 0.00000E+00 2.09940E-02
 -1       501 3.25000E-03 0.00000E+00 3.40100E-02
 -1       502 3.27600E-03 0.00000E+00 2.39900E-02
 -1       503 1.46500E-03 0.00000E+00 1.46500E-03
 -1       504 8.53500E-03 0.00000E+00 4.85350E-02
 -1       505 8.53500E-03 0.00000E+00 1.46500E-03
 -1       506 1.46500E-03 0.00000E+00 4.85350E-02
 -1       507 6.86100E-03 0.00000E+00 4.52700E-03
 -1       508 3.13900E-03 0.00000E+00 4.54730E-02
 -1       509 5.41900E-03 0.00000E+00 4.68970E-02
 -1       510 4.58100E-03 0.00000E+00 3.10300E-03
 -1       511 1.68300E-03 1.00000E-02 3.90300E-02
 -1       512 1.68400E-03 1.00000E-02 1.09700E-02
 -1       513 1.72900E-03 1.00000E-02 2.90030E-02
 -1       514 1.73000E-03 1.00000E-02 2.09970E-02
 -1       515 1.73000E-03 1.00000E-02 6.99800E-03
 -1       516 1.72900E-03 1.00000E-02 4.30020E-02
 -1       517 1.68400E-03 1.00000E-02 3.49800E-02
 -1       518 1.68500E-03 1.00000E-02 1.50210E-02
 -1       519 1.73000E-03 1.00000E-02 2.50010E-02
 -1       520 8.27000E-03 1.00000E-02 1.90010E-02
 -1       521 8.27000E-03 1.00000E-02 3.09990E-02
 -1       522 8.31600E-03 1.00000E-02 4.09740E-02
 -1       523 8.31600E-03 1.00000E-02 9.02600E-03
 -1       524 8.35500E-03 1.00000E-02 4.49110E-02
 -1       525 8.35500E-03 1.00000E-02 5.08800E-03
 -1       526 8.27000E-03 1.00000E-02 3.70010E-02
 -1       527 8.27000E-03 1.00000E-02 1.29990E-02
 -1       528 8.26800E-03 1.00000E-02 2.29980E-02
 -1       529 8.26800E-03 1.00000E-02 2.70020E-02
 -1       530 5.09700E-03 1.00000E-02 4.83720E-02
 -1       531 5.09700E-03 1.00000E-02 1.62800E-03
 -1       532 1.69200E-03 1.00000E-02 3.00900E-03
 -1       533 1.69200E-03 1.00000E-02 4.69910E-02
 -1       534 1.73000E-03 1.00000E-02 2.29980E-02
 -1       535 3.46000E-03 1.00000E-02 2.19950E-02
 -1       536 3.45900E-03 1.00000E-02 1.99980E-02
 -1       537 5.18900E-03 1.00000E-02 2.09960E-02
 -1       538 5.18800E-03 1.00000E-02 1.89980E-02
 -1       539 5.19100E-03 1.00000E-02 2.29930E-02
 -1       540 3.44500E-03 1.00000E-02 1.80250E-02
 -1       541 5.07400E-03 1.00000E-02 1.70030E-02
 -1       542 1.72900E-03 1.00000E-02 2.70050E-02
 -1       543 3.45900E-03 1.00000E-02 2.80050E-02
 -1       544 3.45900E-03 1.00000E-02 3.00020E-02
 -1       545 5.18900E-03 1.00000E-02 2.90040E-02
 -1       546 5.18800E-03 1.00000E-02 3.10020E-02
 -1       547 5.18900E-03 1.00000E-02 2.70070E-02
 -1       548 3.44500E-03 1.00000E-02 3.19750E-02
 -1       549 5.07400E-03 1.00000E-02 3.29970E-02
 -1       550 8.29200E-03 1.00000E-02 1.10300E-02
 -1       551 6.55800E-03 1.00000E-02 1.20300E-02
 -1       552 6.55700E-03 1.00000E-02 1.39770E-02
 -1       553 4.81000E-03 1.00000E-02 1.29970E-02
 -1       554 4.92500E-03 1.00000E-02 1.10010E-02
 -1       555 4.91100E-03 1.00000E-02 1.49950E-02
 -1       556 8.29200E-03 1.00000E-02 3.89700E-02
 -1       557 6.55800E-03 1.00000E-02 3.79700E-02
 -1       558 6.55700E-03 1.00000E-02 3.60230E-02
 -1       559 4.81000E-03 1.00000E-02 3.70030E-02
 -1       560 4.92500E-03 1.00000E-02 3.89980E-02
 -1       561 4.91100E-03 1.00000E-02 3.50050E-02
 -1       562 1.70800E-03 1.00000E-02 8.96700E-03
 -1       563 3.44100E-03 1.00000E-02 7.96700E-03
 -1       564 3.45700E-03 1.00000E-02 5.99400E-03
 -1       565 5.18900E-03 1.00000E-02 6.99900E-03
 -1       566 5.18300E-03 1.00000E-02 4.84800E-03
 -1       567 5.08800E-03 1.00000E-02 8.99500E-03
 -1       568 1.70700E-03 1.00000E-02 4.10330E-02
 -1       569 3.44100E-03 1.00000E-02 4.20320E-02
 -1       570 3.45700E-03 1.00000E-02 4.40050E-02
 -1       571 5.18900E-03 1.00000E-02 4.30000E-02
 -1       572 5.18200E-03 1.00000E-02 4.51520E-02
 -1       573 5.08700E-03 1.00000E-02 4.10040E-02
 -1       574 8.35500E-03 1.00000E-02 7.02000E-03
 -1       575 8.35500E-03 1.00000E-02 4.29800E-02
 -1       576 8.26700E-03 1.00000E-02 2.49990E-02
 -1       577 1.65100E-03 1.00000E-02 3.70060E-02
 -1       578 1.67400E-03 1.00000E-02 1.29940E-02
 -1       579 8.31600E-03 1.00000E-02 3.30250E-02
 -1       580 8.31600E-03 1.00000E-02 1.69750E-02
 -1       581 8.29500E-03 1.00000E-02 1.49660E-02
 -1       582 8.29500E-03 1.00000E-02 3.50340E-02